[Molden Format]
made by pyscf v[2.1.1]
[Atoms] (AU)
Cr   1   24     1.56143912275337    -2.46507591990239    -1.82404491365355
Cr   2   24    -1.56139565905251     2.46513072196000     1.82399011159594
O   3   8     0.00002078698737     0.00002834589187    -0.00002645616574
N   4   7     5.12832174930954    -1.10581670549011    -0.60767356069801
H   5   1     6.65216855026694    -1.66292686427314    -1.66487895135981
H   6   1     5.63710405218294    -1.59213394419468     1.18765885421890
H   7   1     5.20084187906585     0.81566059741989    -0.65509245834172
N   8   7     1.71230729763415    -0.02251608677419    -4.99594076510539
H   9   1     0.29795878723855     1.27247165241550    -4.90823668593820
H   10   1     1.50271021425414    -0.85583806455427    -6.73026148236459
H   11   1     3.34039895052705     0.99863710888315    -5.18656310846864
N   12   7     1.41057094787259    -4.90763575303059     1.34785282752440
H   13   1     1.64193389675534    -6.79355407945465     0.97314659318890
H   14   1    -0.29048681014202    -4.81040367474334     2.24006056107205
H   15   1     2.72468082571676    -4.56691435331926     2.71738081369757
N   16   7    -2.00544350380280    -3.82433513431467    -3.04041437688297
H   17   1    -2.87205678671934    -5.05516478184926    -1.83221042023780
H   18   1    -2.03637832046193    -4.76397121413665    -4.73247136936628
H   19   1    -3.24475802163669    -2.37551046050250    -3.28123540501917
N   20   7     3.37923471211299    -5.33493873459111    -3.94755661599306
H   21   1     4.17102617885350    -4.76109883042731    -5.61685374703210
H   22   1     2.26176595533881    -6.82326057413281    -4.47610923358166
H   23   1     4.85383336053810    -6.19899521806112    -3.03922195969837
N   24   7    -5.12827828560868     1.10587339727385     0.60762064836653
H   25   1    -5.15408816501799    -0.81544705836782     0.54662784797006
H   26   1    -5.69743166898356     1.68113626520945    -1.14337690194197
H   27   1    -6.63528195761783     1.56841410187914     1.73267665553083
N   28   7    -1.71226383393328     0.02257088883181     4.99588785277390
H   29   1    -1.62991523860311     0.86667375415253     6.73575491620870
H   30   1    -0.22416876152653    -1.19157625647512     4.98456461383551
H   31   1    -3.28782110056328    -1.08746368536834     5.11339858210385
N   32   7     2.00548696750367     3.82438993637228     3.04035957482536
H   33   1     2.05186651577887     4.68410571893416     4.77402266739321
H   34   1     2.83712330958063     5.12208376337235     1.87805706574587
H   35   1     3.26582090902109     2.38241174030942     3.19051154350492
N   36   7    -1.41052748417173     4.90769055508820    -1.34790762958202
H   37   1    -1.75003190025884     6.78104976168840    -0.99229329828299
H   38   1    -2.65834387984003     4.49309409198925    -2.75785496783350
H   39   1     0.32278033988471     4.89894112313146    -2.18344058692784
N   40   7    -3.37919124841212     5.33499353664873     3.94750181393545
H   41   1    -2.26357064378777     6.83195331430581     4.45515784003860
H   42   1    -4.15358022727151     4.76963661305810     5.62761006813313
H   43   1    -4.86681766873998     6.18449345978121     3.04686590187224
[GTO]
1 0
 s    6 1.00
          51528.086349  0.0017695545768669
          7737.2103487   0.013556436258096
           1760.374847   0.067162645785071
          496.87706544    0.23295905918518
          161.46520598    0.47040576982722
          55.466352268    0.35733072606876
 s    3 1.00
          107.54732999   -0.10605255446629
          12.408671897    0.62543981484169
          5.0423628826    0.44878820793655
 s    3 1.00
          8.5461640165   -0.21819012081133
          1.3900441221    0.70422525667731
         0.56066602876    0.42488555412558
 s    1 1.00
        0.071483705972                   1
 s    1 1.00
        0.028250687604                   1
 p    5 1.00
          640.48536096  0.0093555063746755
          150.69711194   0.068993338492216
          47.503755296     0.2634118959318
          16.934120165    0.51034501651775
           6.240968059    0.33195512953954
 p    3 1.00
          3.0885463206    0.32917682676976
          1.1791047769    0.55491385190365
         0.43369774432    0.23818412855984
 p    1 1.00
              0.120675                   1
 d    4 1.00
          27.559479426   0.036950140313562
          7.4687020327    0.18821519783039
          2.4345903574    0.44641244239929
         0.78244754808     0.5681617303244
 d    1 1.00
         0.21995774311                   1
 f    1 1.00
                 1.147                   1

2 0
 s    6 1.00
          51528.086349  0.0017695545768669
          7737.2103487   0.013556436258096
           1760.374847   0.067162645785071
          496.87706544    0.23295905918518
          161.46520598    0.47040576982722
          55.466352268    0.35733072606876
 s    3 1.00
          107.54732999   -0.10605255446629
          12.408671897    0.62543981484169
          5.0423628826    0.44878820793655
 s    3 1.00
          8.5461640165   -0.21819012081133
          1.3900441221    0.70422525667731
         0.56066602876    0.42488555412558
 s    1 1.00
        0.071483705972                   1
 s    1 1.00
        0.028250687604                   1
 p    5 1.00
          640.48536096  0.0093555063746755
          150.69711194   0.068993338492216
          47.503755296     0.2634118959318
          16.934120165    0.51034501651775
           6.240968059    0.33195512953954
 p    3 1.00
          3.0885463206    0.32917682676976
          1.1791047769    0.55491385190365
         0.43369774432    0.23818412855984
 p    1 1.00
              0.120675                   1
 d    4 1.00
          27.559479426   0.036950140313562
          7.4687020327    0.18821519783039
          2.4345903574    0.44641244239929
         0.78244754808     0.5681617303244
 d    1 1.00
         0.21995774311                   1
 f    1 1.00
                 1.147                   1

3 0
 s    5 1.00
          2266.1767785  -0.0053893503921743
          340.87010191   -0.04023472138896
          77.363135167   -0.18008184205526
           21.47964494   -0.46828857657651
          6.6589433124   -0.44692617160187
 s    1 1.00
         0.80975975668                   1
 s    1 1.00
         0.25530772234                   1
 p    3 1.00
          17.721504317   0.062630248763161
           3.863550544    0.33331138482352
          1.0480920883    0.74148638308122
 p    1 1.00
         0.27641544411                   1
 d    1 1.00
                   1.2                   1

4 0
 s    5 1.00
          1712.8415853  -0.0054477995804909
          257.64812677  -0.040627174632423
          58.458245853   -0.18111962250584
          16.198367905   -0.46843975563173
          5.0052600809   -0.44616846289231
 s    1 1.00
         0.58731856571                   1
 s    1 1.00
         0.18764592253                   1
 p    3 1.00
          13.571470233  -0.058848116969522
          2.9257372874   -0.32024624762471
         0.79927750754   -0.75328226520436
 p    1 1.00
         0.21954348034                   1
 d    1 1.00
                     1                   1

5 0
 s    3 1.00
             13.010701   0.033485484812989
             1.9622572    0.23472187088125
            0.44453796    0.81377028525955
 s    1 1.00
            0.12194962                   1
 p    1 1.00
                   0.8                   1

6 0
 s    3 1.00
             13.010701   0.033485484812989
             1.9622572    0.23472187088125
            0.44453796    0.81377028525955
 s    1 1.00
            0.12194962                   1
 p    1 1.00
                   0.8                   1

7 0
 s    3 1.00
             13.010701   0.033485484812989
             1.9622572    0.23472187088125
            0.44453796    0.81377028525955
 s    1 1.00
            0.12194962                   1
 p    1 1.00
                   0.8                   1

8 0
 s    5 1.00
          1712.8415853  -0.0054477995804909
          257.64812677  -0.040627174632423
          58.458245853   -0.18111962250584
          16.198367905   -0.46843975563173
          5.0052600809   -0.44616846289231
 s    1 1.00
         0.58731856571                   1
 s    1 1.00
         0.18764592253                   1
 p    3 1.00
          13.571470233  -0.058848116969522
          2.9257372874   -0.32024624762471
         0.79927750754   -0.75328226520436
 p    1 1.00
         0.21954348034                   1
 d    1 1.00
                     1                   1

9 0
 s    3 1.00
             13.010701   0.033485484812989
             1.9622572    0.23472187088125
            0.44453796    0.81377028525955
 s    1 1.00
            0.12194962                   1
 p    1 1.00
                   0.8                   1

10 0
 s    3 1.00
             13.010701   0.033485484812989
             1.9622572    0.23472187088125
            0.44453796    0.81377028525955
 s    1 1.00
            0.12194962                   1
 p    1 1.00
                   0.8                   1

11 0
 s    3 1.00
             13.010701   0.033485484812989
             1.9622572    0.23472187088125
            0.44453796    0.81377028525955
 s    1 1.00
            0.12194962                   1
 p    1 1.00
                   0.8                   1

12 0
 s    5 1.00
          1712.8415853  -0.0054477995804909
          257.64812677  -0.040627174632423
          58.458245853   -0.18111962250584
          16.198367905   -0.46843975563173
          5.0052600809   -0.44616846289231
 s    1 1.00
         0.58731856571                   1
 s    1 1.00
         0.18764592253                   1
 p    3 1.00
          13.571470233  -0.058848116969522
          2.9257372874   -0.32024624762471
         0.79927750754   -0.75328226520436
 p    1 1.00
         0.21954348034                   1
 d    1 1.00
                     1                   1

13 0
 s    3 1.00
             13.010701   0.033485484812989
             1.9622572    0.23472187088125
            0.44453796    0.81377028525955
 s    1 1.00
            0.12194962                   1
 p    1 1.00
                   0.8                   1

14 0
 s    3 1.00
             13.010701   0.033485484812989
             1.9622572    0.23472187088125
            0.44453796    0.81377028525955
 s    1 1.00
            0.12194962                   1
 p    1 1.00
                   0.8                   1

15 0
 s    3 1.00
             13.010701   0.033485484812989
             1.9622572    0.23472187088125
            0.44453796    0.81377028525955
 s    1 1.00
            0.12194962                   1
 p    1 1.00
                   0.8                   1

16 0
 s    5 1.00
          1712.8415853  -0.0054477995804909
          257.64812677  -0.040627174632423
          58.458245853   -0.18111962250584
          16.198367905   -0.46843975563173
          5.0052600809   -0.44616846289231
 s    1 1.00
         0.58731856571                   1
 s    1 1.00
         0.18764592253                   1
 p    3 1.00
          13.571470233  -0.058848116969522
          2.9257372874   -0.32024624762471
         0.79927750754   -0.75328226520436
 p    1 1.00
         0.21954348034                   1
 d    1 1.00
                     1                   1

17 0
 s    3 1.00
             13.010701   0.033485484812989
             1.9622572    0.23472187088125
            0.44453796    0.81377028525955
 s    1 1.00
            0.12194962                   1
 p    1 1.00
                   0.8                   1

18 0
 s    3 1.00
             13.010701   0.033485484812989
             1.9622572    0.23472187088125
            0.44453796    0.81377028525955
 s    1 1.00
            0.12194962                   1
 p    1 1.00
                   0.8                   1

19 0
 s    3 1.00
             13.010701   0.033485484812989
             1.9622572    0.23472187088125
            0.44453796    0.81377028525955
 s    1 1.00
            0.12194962                   1
 p    1 1.00
                   0.8                   1

20 0
 s    5 1.00
          1712.8415853  -0.0054477995804909
          257.64812677  -0.040627174632423
          58.458245853   -0.18111962250584
          16.198367905   -0.46843975563173
          5.0052600809   -0.44616846289231
 s    1 1.00
         0.58731856571                   1
 s    1 1.00
         0.18764592253                   1
 p    3 1.00
          13.571470233  -0.058848116969522
          2.9257372874   -0.32024624762471
         0.79927750754   -0.75328226520436
 p    1 1.00
         0.21954348034                   1
 d    1 1.00
                     1                   1

21 0
 s    3 1.00
             13.010701   0.033485484812989
             1.9622572    0.23472187088125
            0.44453796    0.81377028525955
 s    1 1.00
            0.12194962                   1
 p    1 1.00
                   0.8                   1

22 0
 s    3 1.00
             13.010701   0.033485484812989
             1.9622572    0.23472187088125
            0.44453796    0.81377028525955
 s    1 1.00
            0.12194962                   1
 p    1 1.00
                   0.8                   1

23 0
 s    3 1.00
             13.010701   0.033485484812989
             1.9622572    0.23472187088125
            0.44453796    0.81377028525955
 s    1 1.00
            0.12194962                   1
 p    1 1.00
                   0.8                   1

24 0
 s    5 1.00
          1712.8415853  -0.0054477995804909
          257.64812677  -0.040627174632423
          58.458245853   -0.18111962250584
          16.198367905   -0.46843975563173
          5.0052600809   -0.44616846289231
 s    1 1.00
         0.58731856571                   1
 s    1 1.00
         0.18764592253                   1
 p    3 1.00
          13.571470233  -0.058848116969522
          2.9257372874   -0.32024624762471
         0.79927750754   -0.75328226520436
 p    1 1.00
         0.21954348034                   1
 d    1 1.00
                     1                   1

25 0
 s    3 1.00
             13.010701   0.033485484812989
             1.9622572    0.23472187088125
            0.44453796    0.81377028525955
 s    1 1.00
            0.12194962                   1
 p    1 1.00
                   0.8                   1

26 0
 s    3 1.00
             13.010701   0.033485484812989
             1.9622572    0.23472187088125
            0.44453796    0.81377028525955
 s    1 1.00
            0.12194962                   1
 p    1 1.00
                   0.8                   1

27 0
 s    3 1.00
             13.010701   0.033485484812989
             1.9622572    0.23472187088125
            0.44453796    0.81377028525955
 s    1 1.00
            0.12194962                   1
 p    1 1.00
                   0.8                   1

28 0
 s    5 1.00
          1712.8415853  -0.0054477995804909
          257.64812677  -0.040627174632423
          58.458245853   -0.18111962250584
          16.198367905   -0.46843975563173
          5.0052600809   -0.44616846289231
 s    1 1.00
         0.58731856571                   1
 s    1 1.00
         0.18764592253                   1
 p    3 1.00
          13.571470233  -0.058848116969522
          2.9257372874   -0.32024624762471
         0.79927750754   -0.75328226520436
 p    1 1.00
         0.21954348034                   1
 d    1 1.00
                     1                   1

29 0
 s    3 1.00
             13.010701   0.033485484812989
             1.9622572    0.23472187088125
            0.44453796    0.81377028525955
 s    1 1.00
            0.12194962                   1
 p    1 1.00
                   0.8                   1

30 0
 s    3 1.00
             13.010701   0.033485484812989
             1.9622572    0.23472187088125
            0.44453796    0.81377028525955
 s    1 1.00
            0.12194962                   1
 p    1 1.00
                   0.8                   1

31 0
 s    3 1.00
             13.010701   0.033485484812989
             1.9622572    0.23472187088125
            0.44453796    0.81377028525955
 s    1 1.00
            0.12194962                   1
 p    1 1.00
                   0.8                   1

32 0
 s    5 1.00
          1712.8415853  -0.0054477995804909
          257.64812677  -0.040627174632423
          58.458245853   -0.18111962250584
          16.198367905   -0.46843975563173
          5.0052600809   -0.44616846289231
 s    1 1.00
         0.58731856571                   1
 s    1 1.00
         0.18764592253                   1
 p    3 1.00
          13.571470233  -0.058848116969522
          2.9257372874   -0.32024624762471
         0.79927750754   -0.75328226520436
 p    1 1.00
         0.21954348034                   1
 d    1 1.00
                     1                   1

33 0
 s    3 1.00
             13.010701   0.033485484812989
             1.9622572    0.23472187088125
            0.44453796    0.81377028525955
 s    1 1.00
            0.12194962                   1
 p    1 1.00
                   0.8                   1

34 0
 s    3 1.00
             13.010701   0.033485484812989
             1.9622572    0.23472187088125
            0.44453796    0.81377028525955
 s    1 1.00
            0.12194962                   1
 p    1 1.00
                   0.8                   1

35 0
 s    3 1.00
             13.010701   0.033485484812989
             1.9622572    0.23472187088125
            0.44453796    0.81377028525955
 s    1 1.00
            0.12194962                   1
 p    1 1.00
                   0.8                   1

36 0
 s    5 1.00
          1712.8415853  -0.0054477995804909
          257.64812677  -0.040627174632423
          58.458245853   -0.18111962250584
          16.198367905   -0.46843975563173
          5.0052600809   -0.44616846289231
 s    1 1.00
         0.58731856571                   1
 s    1 1.00
         0.18764592253                   1
 p    3 1.00
          13.571470233  -0.058848116969522
          2.9257372874   -0.32024624762471
         0.79927750754   -0.75328226520436
 p    1 1.00
         0.21954348034                   1
 d    1 1.00
                     1                   1

37 0
 s    3 1.00
             13.010701   0.033485484812989
             1.9622572    0.23472187088125
            0.44453796    0.81377028525955
 s    1 1.00
            0.12194962                   1
 p    1 1.00
                   0.8                   1

38 0
 s    3 1.00
             13.010701   0.033485484812989
             1.9622572    0.23472187088125
            0.44453796    0.81377028525955
 s    1 1.00
            0.12194962                   1
 p    1 1.00
                   0.8                   1

39 0
 s    3 1.00
             13.010701   0.033485484812989
             1.9622572    0.23472187088125
            0.44453796    0.81377028525955
 s    1 1.00
            0.12194962                   1
 p    1 1.00
                   0.8                   1

40 0
 s    5 1.00
          1712.8415853  -0.0054477995804909
          257.64812677  -0.040627174632423
          58.458245853   -0.18111962250584
          16.198367905   -0.46843975563173
          5.0052600809   -0.44616846289231
 s    1 1.00
         0.58731856571                   1
 s    1 1.00
         0.18764592253                   1
 p    3 1.00
          13.571470233  -0.058848116969522
          2.9257372874   -0.32024624762471
         0.79927750754   -0.75328226520436
 p    1 1.00
         0.21954348034                   1
 d    1 1.00
                     1                   1

41 0
 s    3 1.00
             13.010701   0.033485484812989
             1.9622572    0.23472187088125
            0.44453796    0.81377028525955
 s    1 1.00
            0.12194962                   1
 p    1 1.00
                   0.8                   1

42 0
 s    3 1.00
             13.010701   0.033485484812989
             1.9622572    0.23472187088125
            0.44453796    0.81377028525955
 s    1 1.00
            0.12194962                   1
 p    1 1.00
                   0.8                   1

43 0
 s    3 1.00
             13.010701   0.033485484812989
             1.9622572    0.23472187088125
            0.44453796    0.81377028525955
 s    1 1.00
            0.12194962                   1
 p    1 1.00
                   0.8                   1

[5d]
[7f]
[9g]

[MO]
 Sym= A
 Ene=               0
 Spin= Alpha
 Occup=    1.00000
   1      0.01089920865082
   2    -0.018206515467863
   3      0.20539838058164
   4    -0.048292633231095
   5    0.00076646185238412
   6     0.014186068931979
   7    -0.022397521081013
   8     -0.01655514774868
   9    -0.073740333546389
  10      0.11640737145589
  11     0.086014034339755
  12     0.022397478491177
  13     -0.03507986387876
  14    -0.025571860722629
  15     0.010823449089671
  16     0.058258090247099
  17    -0.092033316522054
  18       0.0371919485303
  19     0.078492249959549
  20    0.0052224980251855
  21     0.028291849892597
  22     -0.04480394719207
  23     0.018148793001328
  24     0.038204013091482
  25    0.0040245743916719
  26    0.0010775132737301
  27    -0.0016977820171569
  28    0.0030077339547857
  29    0.0063558838898431
  30    -0.0045526083655479
  31    -0.00056004163224651
  32    -0.012701263108645
  33     0.033981679140892
  34     -0.21852948352988
  35     0.032892367968783
  36     0.012082100532278
  37     0.034379570418221
  38    -0.054307289150209
  39    -0.040185081877802
  40     -0.17780835122421
  41      0.28080993313997
  42      0.20773959333973
  43    -0.0048164242763614
  44    0.0069846416509626
  45    0.0040519553824235
  46    -0.0081004241433126
  47    -0.044468519468514
  48     0.070251753331097
  49    -0.028353355970611
  50    -0.059676351613276
  51    -0.0026897609779526
  52    -0.018016433708049
  53     0.028629216888512
  54    -0.011516596104171
  55     -0.02371297115069
  56    0.00071470845810195
  57    0.00018478628829534
  58    -0.00030271271684026
  59    0.00052662767279119
  60    0.0011420627326036
  61    -0.00080616332741532
  62    -8.8200525156979e-05
  63     -0.16509101796676
  64     -0.32576596664928
  65     -0.25795772834685
  66     -0.10804446271288
  67      0.16984546307527
  68      0.12437968652265
  69    -0.094828792274434
  70      0.14921223960238
  71      0.10932896914976
  72    0.00067428121916958
  73    0.0035904438401301
  74    -0.0056826752467408
  75    0.0022977070780618
  76    0.0048753867640239
  77     0.013161999703998
  78     0.044673368874425
  79      0.03446008672826
  80     0.037139337559797
  81     0.010510548436774
  82    0.0092033685845205
  83    -0.031693889810216
  84    -0.0080318498082741
  85    -0.0074718098357298
  86    0.00023822958830478
  87    0.00097417788208531
  88    -0.0001265095118679
  89    -0.00094791749576461
  90    0.00090142880631681
  91    -0.0033322074116309
  92    -0.003062744082526
  93    -0.0015399726144199
  94    -0.00014645579324482
  95    -0.00012044836334272
  96    0.0043849551935199
  97    -0.00080804180296842
  98    -0.0012366437005958
  99    -0.00052544558682743
 100    -0.00084756760380881
 101    0.0065177715350406
 102    0.00038497141100127
 103    -0.00029634924663858
 104    -0.0012427052072188
 105    -0.00065271366658685
 106     0.013008661857715
 107     0.044179089399292
 108     0.034150664407279
 109    0.0026787079853799
 110     0.021494765199779
 111    -0.033699072457319
 112    -0.0033198436501382
 113    -0.017469502240139
 114     0.029178566093301
 115    -0.0010420652914514
 116    0.00040524082670027
 117    -0.00083935920414485
 118    -0.00021273250801592
 119    -0.00028217710564933
 120    0.0061162996201225
 121    0.0011207721588716
 122    0.00069128338158174
 123    -0.0012292088366055
 124    -0.00013147728848194
 125    -0.0023350365253207
 126    -0.0027864640461782
 127    -0.00015950406508718
 128    -0.00055456203028712
 129    0.0014834357155517
 130    0.0029994204373373
 131    -0.0011817796184181
 132    -0.00036697393568611
 133    -0.0011081555326598
 134    0.0011975116100366
 135     0.013144869031669
 136     0.044624265943437
 137     0.034418589411359
 138    8.3526043473852e-05
 139    -0.027396425284399
 140     0.028682142137804
 141    -0.00082265920384314
 142     0.023622499329499
 143    -0.023796766219422
 144    0.00092990226692368
 145    -0.00024516635212581
 146    -0.00024566039970066
 147    0.0011981371942855
 148    0.00056308228899363
 149    -0.0033491514174848
 150    -0.0030190178693513
 151    -0.0001372218403085
 152    0.0012857726127493
 153    -0.00085041168345999
 154    0.0063871686916939
 155    0.0003358548463343
 156    0.00073898451157183
 157    -0.00015670051005045
 158    -0.0012040689427556
 159    0.0044928136416175
 160    -0.00077390914314311
 161    -0.00010193705778747
 162    0.00063921937854537
 163    -0.0014578899407203
 164     0.013072019375601
 165     0.044393465082377
 166     0.034358137327562
 167    -0.033506270657505
 168    -0.016011298543452
 169    -0.014572289371076
 170     0.027952115265272
 171     0.014592177114886
 172      0.01255071965274
 173    -0.00071064004241208
 174    -9.0829712673781e-05
 175    -0.0010849222808043
 176    0.00076228991659314
 177    -0.0003726196047579
 178     0.003884530457261
 179    -0.00095306542651462
 180     0.001483591368397
 181    0.00065464885795087
 182    0.00013456702437376
 183    -0.0029627647740875
 184    -0.0029892370641219
 185     0.001088089020826
 186    0.00080794081354297
 187    0.00077081771341702
 188    0.0063214566227248
 189    0.00080473701539322
 190    0.0012026483193726
 191    -0.00073368918872799
 192    -0.00024330803804012
 193     0.001081001979015
 194    0.0039590129391539
 195     0.018732469267619
 196    -0.001404691415468
 197    0.0022702171705229
 198    0.0016586439909283
 199     -0.00709369156154
 200     0.010960314514502
 201    0.0078730588358419
 202    4.1602776516317e-05
 203    0.00019139544053987
 204    -0.00030521722849231
 205    0.00012162755681632
 206    0.00027207282229118
 207    0.0027639314663998
 208    0.00076906458794552
 209    7.1615866595466e-05
 210    -0.00081515915429769
 211    0.00025895999133761
 212    0.0028218909313978
 213    0.00070943722340855
 214    0.00083727395741693
 215    3.8138442068383e-06
 216    -0.00018902137053831
 217    0.0028504190636756
 218    0.00093638054360399
 219    -0.00024313177796494
 220    -0.00021555613518279
 221    -0.00077024811637884
 222    -0.0070474209956266
 223     0.026455794845637
 224    -0.0041036752437283
 225     0.062803345912387
 226    -0.021322381545268
 227    -0.011047687102906
 228    -0.039991478981529
 229     0.007827534762946
 230    0.0035130460442792
 231    0.0004499421782721
 232    -0.0014981242857125
 233    0.00034349862627199
 234    0.0018041220275812
 235    -0.00097091819502436
 236      -0.0113595382771
 237    -0.006474294205973
 238    -0.0020583137304841
 239    -0.00012403353018898
 240    0.00021375743003426
 241      0.01758754737016
 242    -0.00048406482991004
 243    -0.0013488883923332
 244    -0.00020840276305762
 245    0.0029336327323456
 246     0.056423865969092
 247    0.0071360874599815
 248    0.0041265008721593
 249    -0.00075016125981794
 250    -0.0038216351826127
 251    -0.0072581898566289
 252      0.02574551488427
 253    -0.0033036605964585
 254     0.026827418632555
 255    -0.0077404480237858
 256    -0.062152127050233
 257    -0.013826410662519
 258    -0.00093158012245276
 259     0.038320320214076
 260    0.0017791664722929
 261    -0.00023992253570248
 262    0.0013593290294455
 263    -0.00025714166980039
 264    0.0011710962079724
 265     0.054215897383676
 266    0.0070823831920588
 267    -0.0013873864282906
 268    -0.0025216508930457
 269    -0.0047455004847452
 270    -0.015664528465132
 271    -0.0075754856699533
 272    0.00011711983583341
 273    -0.00072731637187802
 274    0.0019962175318192
 275     0.022566447042182
 276    0.00072115117993488
 277    0.0020122697473006
 278    0.0022405650559885
 279    0.0019899217450484
 280    -0.0071826720218998
 281      0.02596007916558
 282    -0.0032541674903921
 283    -0.017636704423204
 284    -0.053000137164318
 285    -0.038514215773246
 286     0.016286098924067
 287     0.029643390975448
 288     0.022465582998294
 289     0.001724835094229
 290    -0.00017897586642567
 291    0.0013951512725024
 292    -0.00057547638741365
 293    0.0011120999896664
 294     0.054571142138264
 295     0.007110377334764
 296    -8.6928436853669e-05
 297    -0.0014106472559544
 298    -0.0053926749679695
 299     0.021666736223998
 300    0.0005531468382304
 301    -0.00076379828266384
 302    -0.00050598704525963
 303    0.0034360098682157
 304    -0.014968335617564
 305    -0.0074971302608026
 306    0.0015129229487321
 307    0.00080604837302491
 308    0.0012410344635545
 309    -0.006933565097048
 310     0.026784652138803
 311    -0.0042262228796591
 312     0.021669558288913
 313    -0.062068755176903
 314     0.010540095510035
 315    -0.010638755459785
 316     0.037506453703821
 317    -0.012148802696225
 318    -0.00092732090501251
 319    0.00041402938487742
 320    0.00061706651233084
 321    -0.0021894346620913
 322    -0.000809980294801
 323     0.057819825484285
 324    0.0073931726743631
 325    0.00048585831569944
 326    -0.0055964460756634
 327    -0.0012790047587335
 328      0.01239537908465
 329    -0.001669318590614
 330    0.00074059280734143
 331    0.0025874829690313
 332    0.0011445828425938
 333    -0.0067738925099801
 334    -0.005632008244404
 335    -0.00052927246360631
 336    0.0019864629247665
 337    -0.00055650505931582
 338     0.040215125108266
 339      0.15976173366885
 340     0.098497436966407
 341    -0.044631798909446
 342     0.070405763509127
 343     0.051973945722361