[Molden Format]
made by pyscf v[2.1.1]
[Atoms] (AU)
Cr   1   24     1.56143912275337    -2.46507591990239    -1.82404491365355
Cr   2   24    -1.56139565905251     2.46513072196000     1.82399011159594
O   3   8     0.00002078698737     0.00002834589187    -0.00002645616574
N   4   7     5.12832174930954    -1.10581670549011    -0.60767356069801
H   5   1     6.65216855026694    -1.66292686427314    -1.66487895135981
H   6   1     5.63710405218294    -1.59213394419468     1.18765885421890
H   7   1     5.20084187906585     0.81566059741989    -0.65509245834172
N   8   7     1.71230729763415    -0.02251608677419    -4.99594076510539
H   9   1     0.29795878723855     1.27247165241550    -4.90823668593820
H   10   1     1.50271021425414    -0.85583806455427    -6.73026148236459
H   11   1     3.34039895052705     0.99863710888315    -5.18656310846864
N   12   7     1.41057094787259    -4.90763575303059     1.34785282752440
H   13   1     1.64193389675534    -6.79355407945465     0.97314659318890
H   14   1    -0.29048681014202    -4.81040367474334     2.24006056107205
H   15   1     2.72468082571676    -4.56691435331926     2.71738081369757
N   16   7    -2.00544350380280    -3.82433513431467    -3.04041437688297
H   17   1    -2.87205678671934    -5.05516478184926    -1.83221042023780
H   18   1    -2.03637832046193    -4.76397121413665    -4.73247136936628
H   19   1    -3.24475802163669    -2.37551046050250    -3.28123540501917
N   20   7     3.37923471211299    -5.33493873459111    -3.94755661599306
H   21   1     4.17102617885350    -4.76109883042731    -5.61685374703210
H   22   1     2.26176595533881    -6.82326057413281    -4.47610923358166
H   23   1     4.85383336053810    -6.19899521806112    -3.03922195969837
N   24   7    -5.12827828560868     1.10587339727385     0.60762064836653
H   25   1    -5.15408816501799    -0.81544705836782     0.54662784797006
H   26   1    -5.69743166898356     1.68113626520945    -1.14337690194197
H   27   1    -6.63528195761783     1.56841410187914     1.73267665553083
N   28   7    -1.71226383393328     0.02257088883181     4.99588785277390
H   29   1    -1.62991523860311     0.86667375415253     6.73575491620870
H   30   1    -0.22416876152653    -1.19157625647512     4.98456461383551
H   31   1    -3.28782110056328    -1.08746368536834     5.11339858210385
N   32   7     2.00548696750367     3.82438993637228     3.04035957482536
H   33   1     2.05186651577887     4.68410571893416     4.77402266739321
H   34   1     2.83712330958063     5.12208376337235     1.87805706574587
H   35   1     3.26582090902109     2.38241174030942     3.19051154350492
N   36   7    -1.41052748417173     4.90769055508820    -1.34790762958202
H   37   1    -1.75003190025884     6.78104976168840    -0.99229329828299
H   38   1    -2.65834387984003     4.49309409198925    -2.75785496783350
H   39   1     0.32278033988471     4.89894112313146    -2.18344058692784
N   40   7    -3.37919124841212     5.33499353664873     3.94750181393545
H   41   1    -2.26357064378777     6.83195331430581     4.45515784003860
H   42   1    -4.15358022727151     4.76963661305810     5.62761006813313
H   43   1    -4.86681766873998     6.18449345978121     3.04686590187224
[GTO]
1 0
 s    6 1.00
          51528.086349  0.0017695545768669
          7737.2103487   0.013556436258096
           1760.374847   0.067162645785071
          496.87706544    0.23295905918518
          161.46520598    0.47040576982722
          55.466352268    0.35733072606876
 s    3 1.00
          107.54732999   -0.10605255446629
          12.408671897    0.62543981484169
          5.0423628826    0.44878820793655
 s    3 1.00
          8.5461640165   -0.21819012081133
          1.3900441221    0.70422525667731
         0.56066602876    0.42488555412558
 s    1 1.00
        0.071483705972                   1
 s    1 1.00
        0.028250687604                   1
 p    5 1.00
          640.48536096  0.0093555063746755
          150.69711194   0.068993338492216
          47.503755296     0.2634118959318
          16.934120165    0.51034501651775
           6.240968059    0.33195512953954
 p    3 1.00
          3.0885463206    0.32917682676976
          1.1791047769    0.55491385190365
         0.43369774432    0.23818412855984
 p    1 1.00
              0.120675                   1
 d    4 1.00
          27.559479426   0.036950140313562
          7.4687020327    0.18821519783039
          2.4345903574    0.44641244239929
         0.78244754808     0.5681617303244
 d    1 1.00
         0.21995774311                   1
 f    1 1.00
                 1.147                   1

2 0
 s    6 1.00
          51528.086349  0.0017695545768669
          7737.2103487   0.013556436258096
           1760.374847   0.067162645785071
          496.87706544    0.23295905918518
          161.46520598    0.47040576982722
          55.466352268    0.35733072606876
 s    3 1.00
          107.54732999   -0.10605255446629
          12.408671897    0.62543981484169
          5.0423628826    0.44878820793655
 s    3 1.00
          8.5461640165   -0.21819012081133
          1.3900441221    0.70422525667731
         0.56066602876    0.42488555412558
 s    1 1.00
        0.071483705972                   1
 s    1 1.00
        0.028250687604                   1
 p    5 1.00
          640.48536096  0.0093555063746755
          150.69711194   0.068993338492216
          47.503755296     0.2634118959318
          16.934120165    0.51034501651775
           6.240968059    0.33195512953954
 p    3 1.00
          3.0885463206    0.32917682676976
          1.1791047769    0.55491385190365
         0.43369774432    0.23818412855984
 p    1 1.00
              0.120675                   1
 d    4 1.00
          27.559479426   0.036950140313562
          7.4687020327    0.18821519783039
          2.4345903574    0.44641244239929
         0.78244754808     0.5681617303244
 d    1 1.00
         0.21995774311                   1
 f    1 1.00
                 1.147                   1

3 0
 s    5 1.00
          2266.1767785  -0.0053893503921743
          340.87010191   -0.04023472138896
          77.363135167   -0.18008184205526
           21.47964494   -0.46828857657651
          6.6589433124   -0.44692617160187
 s    1 1.00
         0.80975975668                   1
 s    1 1.00
         0.25530772234                   1
 p    3 1.00
          17.721504317   0.062630248763161
           3.863550544    0.33331138482352
          1.0480920883    0.74148638308122
 p    1 1.00
         0.27641544411                   1
 d    1 1.00
                   1.2                   1

4 0
 s    5 1.00
          1712.8415853  -0.0054477995804909
          257.64812677  -0.040627174632423
          58.458245853   -0.18111962250584
          16.198367905   -0.46843975563173
          5.0052600809   -0.44616846289231
 s    1 1.00
         0.58731856571                   1
 s    1 1.00
         0.18764592253                   1
 p    3 1.00
          13.571470233  -0.058848116969522
          2.9257372874   -0.32024624762471
         0.79927750754   -0.75328226520436
 p    1 1.00
         0.21954348034                   1
 d    1 1.00
                     1                   1

5 0
 s    3 1.00
             13.010701   0.033485484812989
             1.9622572    0.23472187088125
            0.44453796    0.81377028525955
 s    1 1.00
            0.12194962                   1
 p    1 1.00
                   0.8                   1

6 0
 s    3 1.00
             13.010701   0.033485484812989
             1.9622572    0.23472187088125
            0.44453796    0.81377028525955
 s    1 1.00
            0.12194962                   1
 p    1 1.00
                   0.8                   1

7 0
 s    3 1.00
             13.010701   0.033485484812989
             1.9622572    0.23472187088125
            0.44453796    0.81377028525955
 s    1 1.00
            0.12194962                   1
 p    1 1.00
                   0.8                   1

8 0
 s    5 1.00
          1712.8415853  -0.0054477995804909
          257.64812677  -0.040627174632423
          58.458245853   -0.18111962250584
          16.198367905   -0.46843975563173
          5.0052600809   -0.44616846289231
 s    1 1.00
         0.58731856571                   1
 s    1 1.00
         0.18764592253                   1
 p    3 1.00
          13.571470233  -0.058848116969522
          2.9257372874   -0.32024624762471
         0.79927750754   -0.75328226520436
 p    1 1.00
         0.21954348034                   1
 d    1 1.00
                     1                   1

9 0
 s    3 1.00
             13.010701   0.033485484812989
             1.9622572    0.23472187088125
            0.44453796    0.81377028525955
 s    1 1.00
            0.12194962                   1
 p    1 1.00
                   0.8                   1

10 0
 s    3 1.00
             13.010701   0.033485484812989
             1.9622572    0.23472187088125
            0.44453796    0.81377028525955
 s    1 1.00
            0.12194962                   1
 p    1 1.00
                   0.8                   1

11 0
 s    3 1.00
             13.010701   0.033485484812989
             1.9622572    0.23472187088125
            0.44453796    0.81377028525955
 s    1 1.00
            0.12194962                   1
 p    1 1.00
                   0.8                   1

12 0
 s    5 1.00
          1712.8415853  -0.0054477995804909
          257.64812677  -0.040627174632423
          58.458245853   -0.18111962250584
          16.198367905   -0.46843975563173
          5.0052600809   -0.44616846289231
 s    1 1.00
         0.58731856571                   1
 s    1 1.00
         0.18764592253                   1
 p    3 1.00
          13.571470233  -0.058848116969522
          2.9257372874   -0.32024624762471
         0.79927750754   -0.75328226520436
 p    1 1.00
         0.21954348034                   1
 d    1 1.00
                     1                   1

13 0
 s    3 1.00
             13.010701   0.033485484812989
             1.9622572    0.23472187088125
            0.44453796    0.81377028525955
 s    1 1.00
            0.12194962                   1
 p    1 1.00
                   0.8                   1

14 0
 s    3 1.00
             13.010701   0.033485484812989
             1.9622572    0.23472187088125
            0.44453796    0.81377028525955
 s    1 1.00
            0.12194962                   1
 p    1 1.00
                   0.8                   1

15 0
 s    3 1.00
             13.010701   0.033485484812989
             1.9622572    0.23472187088125
            0.44453796    0.81377028525955
 s    1 1.00
            0.12194962                   1
 p    1 1.00
                   0.8                   1

16 0
 s    5 1.00
          1712.8415853  -0.0054477995804909
          257.64812677  -0.040627174632423
          58.458245853   -0.18111962250584
          16.198367905   -0.46843975563173
          5.0052600809   -0.44616846289231
 s    1 1.00
         0.58731856571                   1
 s    1 1.00
         0.18764592253                   1
 p    3 1.00
          13.571470233  -0.058848116969522
          2.9257372874   -0.32024624762471
         0.79927750754   -0.75328226520436
 p    1 1.00
         0.21954348034                   1
 d    1 1.00
                     1                   1

17 0
 s    3 1.00
             13.010701   0.033485484812989
             1.9622572    0.23472187088125
            0.44453796    0.81377028525955
 s    1 1.00
            0.12194962                   1
 p    1 1.00
                   0.8                   1

18 0
 s    3 1.00
             13.010701   0.033485484812989
             1.9622572    0.23472187088125
            0.44453796    0.81377028525955
 s    1 1.00
            0.12194962                   1
 p    1 1.00
                   0.8                   1

19 0
 s    3 1.00
             13.010701   0.033485484812989
             1.9622572    0.23472187088125
            0.44453796    0.81377028525955
 s    1 1.00
            0.12194962                   1
 p    1 1.00
                   0.8                   1

20 0
 s    5 1.00
          1712.8415853  -0.0054477995804909
          257.64812677  -0.040627174632423
          58.458245853   -0.18111962250584
          16.198367905   -0.46843975563173
          5.0052600809   -0.44616846289231
 s    1 1.00
         0.58731856571                   1
 s    1 1.00
         0.18764592253                   1
 p    3 1.00
          13.571470233  -0.058848116969522
          2.9257372874   -0.32024624762471
         0.79927750754   -0.75328226520436
 p    1 1.00
         0.21954348034                   1
 d    1 1.00
                     1                   1

21 0
 s    3 1.00
             13.010701   0.033485484812989
             1.9622572    0.23472187088125
            0.44453796    0.81377028525955
 s    1 1.00
            0.12194962                   1
 p    1 1.00
                   0.8                   1

22 0
 s    3 1.00
             13.010701   0.033485484812989
             1.9622572    0.23472187088125
            0.44453796    0.81377028525955
 s    1 1.00
            0.12194962                   1
 p    1 1.00
                   0.8                   1

23 0
 s    3 1.00
             13.010701   0.033485484812989
             1.9622572    0.23472187088125
            0.44453796    0.81377028525955
 s    1 1.00
            0.12194962                   1
 p    1 1.00
                   0.8                   1

24 0
 s    5 1.00
          1712.8415853  -0.0054477995804909
          257.64812677  -0.040627174632423
          58.458245853   -0.18111962250584
          16.198367905   -0.46843975563173
          5.0052600809   -0.44616846289231
 s    1 1.00
         0.58731856571                   1
 s    1 1.00
         0.18764592253                   1
 p    3 1.00
          13.571470233  -0.058848116969522
          2.9257372874   -0.32024624762471
         0.79927750754   -0.75328226520436
 p    1 1.00
         0.21954348034                   1
 d    1 1.00
                     1                   1

25 0
 s    3 1.00
             13.010701   0.033485484812989
             1.9622572    0.23472187088125
            0.44453796    0.81377028525955
 s    1 1.00
            0.12194962                   1
 p    1 1.00
                   0.8                   1

26 0
 s    3 1.00
             13.010701   0.033485484812989
             1.9622572    0.23472187088125
            0.44453796    0.81377028525955
 s    1 1.00
            0.12194962                   1
 p    1 1.00
                   0.8                   1

27 0
 s    3 1.00
             13.010701   0.033485484812989
             1.9622572    0.23472187088125
            0.44453796    0.81377028525955
 s    1 1.00
            0.12194962                   1
 p    1 1.00
                   0.8                   1

28 0
 s    5 1.00
          1712.8415853  -0.0054477995804909
          257.64812677  -0.040627174632423
          58.458245853   -0.18111962250584
          16.198367905   -0.46843975563173
          5.0052600809   -0.44616846289231
 s    1 1.00
         0.58731856571                   1
 s    1 1.00
         0.18764592253                   1
 p    3 1.00
          13.571470233  -0.058848116969522
          2.9257372874   -0.32024624762471
         0.79927750754   -0.75328226520436
 p    1 1.00
         0.21954348034                   1
 d    1 1.00
                     1                   1

29 0
 s    3 1.00
             13.010701   0.033485484812989
             1.9622572    0.23472187088125
            0.44453796    0.81377028525955
 s    1 1.00
            0.12194962                   1
 p    1 1.00
                   0.8                   1

30 0
 s    3 1.00
             13.010701   0.033485484812989
             1.9622572    0.23472187088125
            0.44453796    0.81377028525955
 s    1 1.00
            0.12194962                   1
 p    1 1.00
                   0.8                   1

31 0
 s    3 1.00
             13.010701   0.033485484812989
             1.9622572    0.23472187088125
            0.44453796    0.81377028525955
 s    1 1.00
            0.12194962                   1
 p    1 1.00
                   0.8                   1

32 0
 s    5 1.00
          1712.8415853  -0.0054477995804909
          257.64812677  -0.040627174632423
          58.458245853   -0.18111962250584
          16.198367905   -0.46843975563173
          5.0052600809   -0.44616846289231
 s    1 1.00
         0.58731856571                   1
 s    1 1.00
         0.18764592253                   1
 p    3 1.00
          13.571470233  -0.058848116969522
          2.9257372874   -0.32024624762471
         0.79927750754   -0.75328226520436
 p    1 1.00
         0.21954348034                   1
 d    1 1.00
                     1                   1

33 0
 s    3 1.00
             13.010701   0.033485484812989
             1.9622572    0.23472187088125
            0.44453796    0.81377028525955
 s    1 1.00
            0.12194962                   1
 p    1 1.00
                   0.8                   1

34 0
 s    3 1.00
             13.010701   0.033485484812989
             1.9622572    0.23472187088125
            0.44453796    0.81377028525955
 s    1 1.00
            0.12194962                   1
 p    1 1.00
                   0.8                   1

35 0
 s    3 1.00
             13.010701   0.033485484812989
             1.9622572    0.23472187088125
            0.44453796    0.81377028525955
 s    1 1.00
            0.12194962                   1
 p    1 1.00
                   0.8                   1

36 0
 s    5 1.00
          1712.8415853  -0.0054477995804909
          257.64812677  -0.040627174632423
          58.458245853   -0.18111962250584
          16.198367905   -0.46843975563173
          5.0052600809   -0.44616846289231
 s    1 1.00
         0.58731856571                   1
 s    1 1.00
         0.18764592253                   1
 p    3 1.00
          13.571470233  -0.058848116969522
          2.9257372874   -0.32024624762471
         0.79927750754   -0.75328226520436
 p    1 1.00
         0.21954348034                   1
 d    1 1.00
                     1                   1

37 0
 s    3 1.00
             13.010701   0.033485484812989
             1.9622572    0.23472187088125
            0.44453796    0.81377028525955
 s    1 1.00
            0.12194962                   1
 p    1 1.00
                   0.8                   1

38 0
 s    3 1.00
             13.010701   0.033485484812989
             1.9622572    0.23472187088125
            0.44453796    0.81377028525955
 s    1 1.00
            0.12194962                   1
 p    1 1.00
                   0.8                   1

39 0
 s    3 1.00
             13.010701   0.033485484812989
             1.9622572    0.23472187088125
            0.44453796    0.81377028525955
 s    1 1.00
            0.12194962                   1
 p    1 1.00
                   0.8                   1

40 0
 s    5 1.00
          1712.8415853  -0.0054477995804909
          257.64812677  -0.040627174632423
          58.458245853   -0.18111962250584
          16.198367905   -0.46843975563173
          5.0052600809   -0.44616846289231
 s    1 1.00
         0.58731856571                   1
 s    1 1.00
         0.18764592253                   1
 p    3 1.00
          13.571470233  -0.058848116969522
          2.9257372874   -0.32024624762471
         0.79927750754   -0.75328226520436
 p    1 1.00
         0.21954348034                   1
 d    1 1.00
                     1                   1

41 0
 s    3 1.00
             13.010701   0.033485484812989
             1.9622572    0.23472187088125
            0.44453796    0.81377028525955
 s    1 1.00
            0.12194962                   1
 p    1 1.00
                   0.8                   1

42 0
 s    3 1.00
             13.010701   0.033485484812989
             1.9622572    0.23472187088125
            0.44453796    0.81377028525955
 s    1 1.00
            0.12194962                   1
 p    1 1.00
                   0.8                   1

43 0
 s    3 1.00
             13.010701   0.033485484812989
             1.9622572    0.23472187088125
            0.44453796    0.81377028525955
 s    1 1.00
            0.12194962                   1
 p    1 1.00
                   0.8                   1

[5d]
[7f]
[9g]

[MO]
 Sym= A
 Ene=               0
 Spin= Alpha
 Occup=    1.00000
   1    0.0068197246467618
   2    -0.0087332750656358
   3      0.13907692561298
   4     0.015472778494492
   5    -0.014105988590663
   6      0.01052490098143
   7    -0.016610790516965
   8    -0.012282497576292
   9    -0.061965282363882
  10     0.097804951466642
  11     0.072313460148762
  12    0.00031335015127033
  13    -0.00046788397582448
  14    -0.00026722939154543
  15    0.00052263396807845
  16    0.0021842042803227
  17    -0.0034615390336652
  18    0.0013944137505598
  19     0.003029626037708
  20    0.00021740269387732
  21    0.0010170915701734
  22    -0.0017309850680359
  23    0.0007700869832257
  24    0.0015108327180331
  25    -0.0005106203836018
  26    -0.00011898366252791
  27    0.00022247518762864
  28    -0.00037146558801133
  29    -0.00081948085848361
  30    0.00057498940789488
  31    6.1618571519778e-05
  32    -0.017410787288546
  33     0.043659107799075
  34     -0.30939804885609
  35     0.028174548949634
  36    0.0055087433896234
  37     0.043388321513397
  38    -0.068545039960908
  39    -0.050749728686344
  40     -0.23052785188337
  41       0.3640903691802
  42      0.26946956296611
  43    0.0029588198350036
  44    -0.0057995488740815
  45    -0.0056947305905787
  46    -0.0056600335929909
  47    -0.029299929900539
  48     0.044038763021006
  49    -0.017716669111965
  50    -0.037157088091448
  51    -0.0031863830066418
  52    -0.020560913834882
  53      0.03217744156197
  54    -0.012932743005771
  55    -0.026564070684646
  56    0.0011683516385514
  57    0.0002878561554016
  58    -0.00048146845207941
  59    0.00085370080070374
  60    0.0018609341294539
  61    -0.0013240444956218
  62    -0.00014841088027974
  63     -0.46643391753924
  64      0.12429034785433
  65     0.061177077675875
  66    0.0070644537014698
  67    -0.011284959017891
  68    -0.0083623804901481
  69     0.009440223191484
  70    -0.014821085711698
  71    -0.010900499696364
  72    -0.00020510521259652
  73    -0.0012113630302157
  74    0.0019183480619528
  75    -0.00077749326426864
  76    -0.0016114148149087
  77    0.0036896634245174
  78     0.011141645726372
  79      0.01481759978578
  80     0.019869990030913
  81     0.009940551644951
  82     0.006875975161115
  83    -0.017869442417803
  84    -0.0072860380588832
  85    -0.0061401807915759
  86    -0.00015552632763852
  87    0.00014679634157519
  88    -9.3226130140123e-05
  89    0.00039382857105847
  90    0.00010890107961207
  91    -0.0026485021844847
  92    0.0012113110488737
  93    -8.4708926074864e-05
  94    -0.00013702481672388
  95    -8.1862538815475e-05
  96    -0.0026751694574413
  97    -0.00031994915495885
  98    -0.00021769974713131
  99    -0.00040747899790806
 100    5.3711808884021e-05
 101    -0.0047562350856498
 102    -0.0030374888624753
 103    -0.00016957852400748
 104    0.00024058222133558
 105    -0.00035669402710885
 106    0.0034647959730707
 107     0.010444837761821
 108     0.015137684732555
 109    -0.0020957237386236
 110     0.016393019515359
 111    -0.017491900326504
 112    -0.0003268032567065
 113    -0.013070145304489
 114     0.016098662457553
 115    0.00035648097579217
 116    -7.9369824814101e-05
 117    -0.00030000114903506
 118    1.7044408354524e-05
 119    0.00020044870386633
 120    -0.006497946509603
 121    -0.004108560494503
 122    -0.00046925795815206
 123    3.2969359291496e-05
 124    0.00014364748724652
 125    -0.002520854116929
 126    0.0010773694106306
 127    8.5672495724339e-05
 128    -0.00026396515848425
 129    6.3481110377155e-05
 130    -0.0022513213518449
 131    0.00042476966580053
 132    0.00029508146857077
 133    -0.00031109478157117
 134    0.00023394495036745
 135    0.0036927550933343
 136     0.011151555538288
 137     0.014771505563154
 138    -0.0028249076791499
 139    -0.013330847399593
 140     0.018845975018996
 141    0.0011547235558257
 142     0.012151252795257
 143    -0.016213796723111
 144    9.3745472686259e-06
 145    0.00014683691691846
 146    -0.0004054391052613
 147    -0.00019839953318345
 148    2.0517393404519e-06
 149    -0.0026452245429186
 150    0.0012204539302562
 151    6.633200781098e-05
 152    2.2284034496543e-05
 153    -0.00015730713320767
 154    -0.0048038083912655
 155    -0.0029087210634382
 156    -0.00038655564485284
 157    -3.3446650866851e-06
 158    -0.00023858313666217
 159    -0.0026484492455471
 160    -0.00034077619563732
 161    0.00034491752707733
 162    0.00017798196845075
 163    -0.00024549048350685
 164    0.0036089165563788
 165     0.010926512848525
 166     0.014774775430089
 167    -0.022061444834268
 168    -0.0052379377867704
 169    -0.0070519290442333
 170     0.018648922239067
 171    0.0063740736040375
 172    0.0060445764634662
 173    -3.820275922617e-05
 174    0.00025316272377645
 175    9.3918117179206e-05
 176    8.2714458356417e-05
 177    0.00041075213234877
 178    -0.0023830850032942
 179    8.878212602758e-05
 180     0.000392176312563
 181    -0.00017452484318378
 182    0.00021882536074979
 183    -0.0026203809776449
 184    0.00097507307952598
 185    0.00021746322628303
 186    -5.8537696379419e-05
 187    -2.413783831297e-05
 188    -0.0055875113153805
 189    -0.0031867795667759
 190    9.9180675815979e-05
 191    0.00040182581456153
 192    -0.00019407877452062
 193    -0.0064327609110241
 194    -0.016990542928292
 195    -0.022045347564113
 196    -0.010142477163669
 197     0.015890742115875
 198     0.011640081507655
 199    0.0086285393180774
 200    -0.013630783416784
 201    -0.010096369436587
 202    8.9320276819119e-06
 203    6.8703515472922e-05
 204    -0.00011294267696037
 205    4.5209754686292e-05
 206    9.6890938497571e-05
 207    0.0014409347017893
 208    0.0029424405647423
 209    0.00020167931172822
 210    -0.00041018607944952
 211    -0.00012983925930628
 212     0.001494159297093
 213    0.0028965444321225
 214    0.00033351826429493
 215    -0.00027269288409018
 216    -0.00020440426062976
 217    0.0014512554142859
 218    0.0029775928758938
 219    0.00012467844611588
 220    -0.0003010384738611
 221    -0.00032006029747664
 222    -0.014495742357756
 223      0.01028091072296
 224    -0.019193640545379
 225     0.087835490478516
 226     -0.03027239663634
 227    -0.015234215608908
 228    -0.059407153918991
 229     0.014131205805204
 230    0.0075287453289742
 231    0.00078643477004841
 232    -0.0018409729700689
 233    0.0005291224041298
 234    0.0022829671042545
 235    -0.00098012112722381
 236    -0.023225042780075
 237    -0.0067237586402344
 238    -0.0032656611846032
 239    -0.0015160048166294
 240    -0.0002219879310865
 241     0.016802406771033
 242    0.0019469872072686
 243    -0.002125847553252
 244    -0.00035760582376247
 245    0.0028548379170842
 246     0.067779508616145
 247      0.01175314642102
 248    0.0048017336085031
 249    -0.00097979355904325
 250    -0.0045546492324125
 251    -0.014783729066878
 252    0.0093449678763039
 253    -0.017995046559429
 254     0.038025668530456
 255    -0.011157265379116
 256    -0.086828544994312
 257    -0.021279509271629
 258    0.0019560525411108
 259     0.057247492454694
 260    0.0021833380937925
 261    -4.0140116089778e-05
 262    0.0016164855119677
 263    -0.00053523149406416
 264    0.0016548983698904
 265      0.06507429903493
 266     0.011686217037311
 267    -0.0015769589726549
 268    -0.003082451944104
 269    -0.005518536825846
 270    -0.029125045271792
 271    -0.008180736380793
 272     0.000927501774012
 273    -0.0022907189556849
 274    0.0030320602774598
 275      0.02349315180408
 276    0.0037237362235671
 277    0.0020634012965451
 278    0.0020990225311826
 279     0.002621079700285
 280    -0.014698844807433
 281    0.0095675598443217
 282    -0.017923484569015
 283    -0.024306081826869
 284    -0.074575388924065
 285    -0.053772767667295
 286     0.021290097176408
 287     0.045278364674212
 288     0.034865989071377
 289    0.0023144629888475
 290    -0.00029963934954575
 291    0.0016206978977488
 292    -0.00040890808987261
 293     0.001469590673676
 294     0.065550078063032
 295     0.011749468566918
 296    3.4525825252222e-05
 297    -0.0016907128804166
 298    -0.0063309493524212
 299     0.022242759275713
 300    0.0034370355083381
 301    -0.00031050030849228
 302    -0.00023798843268825
 303    0.0038684026508265
 304    -0.028190750482212
 305    -0.0080223963668261
 306    0.0034438518488336
 307    0.00043626521869283
 308     0.001700567035856
 309     -0.01431645808938
 310     0.010747996394392
 311    -0.019526675513674
 312     0.030648926597205
 313    -0.086750345342462
 314     0.014745029510018
 315    -0.017022769065376
 316     0.056957770953772
 317     -0.01492266678312
 318    -0.00091785511524146
 319    0.00048660155684747
 320    0.0008231964872922
 321    -0.0027902558428944
 322    -0.00088107186765015
 323     0.069640585450093
 324     0.011970020635694
 325    0.00062164620645969
 326    -0.0066030111451096
 327    -0.0016314891834709
 328    0.0096149463956471
 329    0.00073816290442464
 330    0.00062395950786311
 331    0.0032665414765462
 332    0.00046281188544082
 333    -0.016931052259931
 334    -0.0052088441205974
 335    0.00019145822916065
 336    0.0028216541371935
 337    -0.0018754823431584
 338     0.042486578656993
 339      0.17511029744961
 340      0.10583066339566
 341     -0.04487476959921
 342     0.070850367165656
 343      0.05240670442933