[Molden Format]
made by pyscf v[2.1.1]
[Atoms] (AU)
Cr   1   24     1.56143912275337    -2.46507591990239    -1.82404491365355
Cr   2   24    -1.56139565905251     2.46513072196000     1.82399011159594
O   3   8     0.00002078698737     0.00002834589187    -0.00002645616574
N   4   7     5.12832174930954    -1.10581670549011    -0.60767356069801
H   5   1     6.65216855026694    -1.66292686427314    -1.66487895135981
H   6   1     5.63710405218294    -1.59213394419468     1.18765885421890
H   7   1     5.20084187906585     0.81566059741989    -0.65509245834172
N   8   7     1.71230729763415    -0.02251608677419    -4.99594076510539
H   9   1     0.29795878723855     1.27247165241550    -4.90823668593820
H   10   1     1.50271021425414    -0.85583806455427    -6.73026148236459
H   11   1     3.34039895052705     0.99863710888315    -5.18656310846864
N   12   7     1.41057094787259    -4.90763575303059     1.34785282752440
H   13   1     1.64193389675534    -6.79355407945465     0.97314659318890
H   14   1    -0.29048681014202    -4.81040367474334     2.24006056107205
H   15   1     2.72468082571676    -4.56691435331926     2.71738081369757
N   16   7    -2.00544350380280    -3.82433513431467    -3.04041437688297
H   17   1    -2.87205678671934    -5.05516478184926    -1.83221042023780
H   18   1    -2.03637832046193    -4.76397121413665    -4.73247136936628
H   19   1    -3.24475802163669    -2.37551046050250    -3.28123540501917
N   20   7     3.37923471211299    -5.33493873459111    -3.94755661599306
H   21   1     4.17102617885350    -4.76109883042731    -5.61685374703210
H   22   1     2.26176595533881    -6.82326057413281    -4.47610923358166
H   23   1     4.85383336053810    -6.19899521806112    -3.03922195969837
N   24   7    -5.12827828560868     1.10587339727385     0.60762064836653
H   25   1    -5.15408816501799    -0.81544705836782     0.54662784797006
H   26   1    -5.69743166898356     1.68113626520945    -1.14337690194197
H   27   1    -6.63528195761783     1.56841410187914     1.73267665553083
N   28   7    -1.71226383393328     0.02257088883181     4.99588785277390
H   29   1    -1.62991523860311     0.86667375415253     6.73575491620870
H   30   1    -0.22416876152653    -1.19157625647512     4.98456461383551
H   31   1    -3.28782110056328    -1.08746368536834     5.11339858210385
N   32   7     2.00548696750367     3.82438993637228     3.04035957482536
H   33   1     2.05186651577887     4.68410571893416     4.77402266739321
H   34   1     2.83712330958063     5.12208376337235     1.87805706574587
H   35   1     3.26582090902109     2.38241174030942     3.19051154350492
N   36   7    -1.41052748417173     4.90769055508820    -1.34790762958202
H   37   1    -1.75003190025884     6.78104976168840    -0.99229329828299
H   38   1    -2.65834387984003     4.49309409198925    -2.75785496783350
H   39   1     0.32278033988471     4.89894112313146    -2.18344058692784
N   40   7    -3.37919124841212     5.33499353664873     3.94750181393545
H   41   1    -2.26357064378777     6.83195331430581     4.45515784003860
H   42   1    -4.15358022727151     4.76963661305810     5.62761006813313
H   43   1    -4.86681766873998     6.18449345978121     3.04686590187224
[GTO]
1 0
 s    6 1.00
          51528.086349  0.0017695545768669
          7737.2103487   0.013556436258096
           1760.374847   0.067162645785071
          496.87706544    0.23295905918518
          161.46520598    0.47040576982722
          55.466352268    0.35733072606876
 s    3 1.00
          107.54732999   -0.10605255446629
          12.408671897    0.62543981484169
          5.0423628826    0.44878820793655
 s    3 1.00
          8.5461640165   -0.21819012081133
          1.3900441221    0.70422525667731
         0.56066602876    0.42488555412558
 s    1 1.00
        0.071483705972                   1
 s    1 1.00
        0.028250687604                   1
 p    5 1.00
          640.48536096  0.0093555063746755
          150.69711194   0.068993338492216
          47.503755296     0.2634118959318
          16.934120165    0.51034501651775
           6.240968059    0.33195512953954
 p    3 1.00
          3.0885463206    0.32917682676976
          1.1791047769    0.55491385190365
         0.43369774432    0.23818412855984
 p    1 1.00
              0.120675                   1
 d    4 1.00
          27.559479426   0.036950140313562
          7.4687020327    0.18821519783039
          2.4345903574    0.44641244239929
         0.78244754808     0.5681617303244
 d    1 1.00
         0.21995774311                   1
 f    1 1.00
                 1.147                   1

2 0
 s    6 1.00
          51528.086349  0.0017695545768669
          7737.2103487   0.013556436258096
           1760.374847   0.067162645785071
          496.87706544    0.23295905918518
          161.46520598    0.47040576982722
          55.466352268    0.35733072606876
 s    3 1.00
          107.54732999   -0.10605255446629
          12.408671897    0.62543981484169
          5.0423628826    0.44878820793655
 s    3 1.00
          8.5461640165   -0.21819012081133
          1.3900441221    0.70422525667731
         0.56066602876    0.42488555412558
 s    1 1.00
        0.071483705972                   1
 s    1 1.00
        0.028250687604                   1
 p    5 1.00
          640.48536096  0.0093555063746755
          150.69711194   0.068993338492216
          47.503755296     0.2634118959318
          16.934120165    0.51034501651775
           6.240968059    0.33195512953954
 p    3 1.00
          3.0885463206    0.32917682676976
          1.1791047769    0.55491385190365
         0.43369774432    0.23818412855984
 p    1 1.00
              0.120675                   1
 d    4 1.00
          27.559479426   0.036950140313562
          7.4687020327    0.18821519783039
          2.4345903574    0.44641244239929
         0.78244754808     0.5681617303244
 d    1 1.00
         0.21995774311                   1
 f    1 1.00
                 1.147                   1

3 0
 s    5 1.00
          2266.1767785  -0.0053893503921743
          340.87010191   -0.04023472138896
          77.363135167   -0.18008184205526
           21.47964494   -0.46828857657651
          6.6589433124   -0.44692617160187
 s    1 1.00
         0.80975975668                   1
 s    1 1.00
         0.25530772234                   1
 p    3 1.00
          17.721504317   0.062630248763161
           3.863550544    0.33331138482352
          1.0480920883    0.74148638308122
 p    1 1.00
         0.27641544411                   1
 d    1 1.00
                   1.2                   1

4 0
 s    5 1.00
          1712.8415853  -0.0054477995804909
          257.64812677  -0.040627174632423
          58.458245853   -0.18111962250584
          16.198367905   -0.46843975563173
          5.0052600809   -0.44616846289231
 s    1 1.00
         0.58731856571                   1
 s    1 1.00
         0.18764592253                   1
 p    3 1.00
          13.571470233  -0.058848116969522
          2.9257372874   -0.32024624762471
         0.79927750754   -0.75328226520436
 p    1 1.00
         0.21954348034                   1
 d    1 1.00
                     1                   1

5 0
 s    3 1.00
             13.010701   0.033485484812989
             1.9622572    0.23472187088125
            0.44453796    0.81377028525955
 s    1 1.00
            0.12194962                   1
 p    1 1.00
                   0.8                   1

6 0
 s    3 1.00
             13.010701   0.033485484812989
             1.9622572    0.23472187088125
            0.44453796    0.81377028525955
 s    1 1.00
            0.12194962                   1
 p    1 1.00
                   0.8                   1

7 0
 s    3 1.00
             13.010701   0.033485484812989
             1.9622572    0.23472187088125
            0.44453796    0.81377028525955
 s    1 1.00
            0.12194962                   1
 p    1 1.00
                   0.8                   1

8 0
 s    5 1.00
          1712.8415853  -0.0054477995804909
          257.64812677  -0.040627174632423
          58.458245853   -0.18111962250584
          16.198367905   -0.46843975563173
          5.0052600809   -0.44616846289231
 s    1 1.00
         0.58731856571                   1
 s    1 1.00
         0.18764592253                   1
 p    3 1.00
          13.571470233  -0.058848116969522
          2.9257372874   -0.32024624762471
         0.79927750754   -0.75328226520436
 p    1 1.00
         0.21954348034                   1
 d    1 1.00
                     1                   1

9 0
 s    3 1.00
             13.010701   0.033485484812989
             1.9622572    0.23472187088125
            0.44453796    0.81377028525955
 s    1 1.00
            0.12194962                   1
 p    1 1.00
                   0.8                   1

10 0
 s    3 1.00
             13.010701   0.033485484812989
             1.9622572    0.23472187088125
            0.44453796    0.81377028525955
 s    1 1.00
            0.12194962                   1
 p    1 1.00
                   0.8                   1

11 0
 s    3 1.00
             13.010701   0.033485484812989
             1.9622572    0.23472187088125
            0.44453796    0.81377028525955
 s    1 1.00
            0.12194962                   1
 p    1 1.00
                   0.8                   1

12 0
 s    5 1.00
          1712.8415853  -0.0054477995804909
          257.64812677  -0.040627174632423
          58.458245853   -0.18111962250584
          16.198367905   -0.46843975563173
          5.0052600809   -0.44616846289231
 s    1 1.00
         0.58731856571                   1
 s    1 1.00
         0.18764592253                   1
 p    3 1.00
          13.571470233  -0.058848116969522
          2.9257372874   -0.32024624762471
         0.79927750754   -0.75328226520436
 p    1 1.00
         0.21954348034                   1
 d    1 1.00
                     1                   1

13 0
 s    3 1.00
             13.010701   0.033485484812989
             1.9622572    0.23472187088125
            0.44453796    0.81377028525955
 s    1 1.00
            0.12194962                   1
 p    1 1.00
                   0.8                   1

14 0
 s    3 1.00
             13.010701   0.033485484812989
             1.9622572    0.23472187088125
            0.44453796    0.81377028525955
 s    1 1.00
            0.12194962                   1
 p    1 1.00
                   0.8                   1

15 0
 s    3 1.00
             13.010701   0.033485484812989
             1.9622572    0.23472187088125
            0.44453796    0.81377028525955
 s    1 1.00
            0.12194962                   1
 p    1 1.00
                   0.8                   1

16 0
 s    5 1.00
          1712.8415853  -0.0054477995804909
          257.64812677  -0.040627174632423
          58.458245853   -0.18111962250584
          16.198367905   -0.46843975563173
          5.0052600809   -0.44616846289231
 s    1 1.00
         0.58731856571                   1
 s    1 1.00
         0.18764592253                   1
 p    3 1.00
          13.571470233  -0.058848116969522
          2.9257372874   -0.32024624762471
         0.79927750754   -0.75328226520436
 p    1 1.00
         0.21954348034                   1
 d    1 1.00
                     1                   1

17 0
 s    3 1.00
             13.010701   0.033485484812989
             1.9622572    0.23472187088125
            0.44453796    0.81377028525955
 s    1 1.00
            0.12194962                   1
 p    1 1.00
                   0.8                   1

18 0
 s    3 1.00
             13.010701   0.033485484812989
             1.9622572    0.23472187088125
            0.44453796    0.81377028525955
 s    1 1.00
            0.12194962                   1
 p    1 1.00
                   0.8                   1

19 0
 s    3 1.00
             13.010701   0.033485484812989
             1.9622572    0.23472187088125
            0.44453796    0.81377028525955
 s    1 1.00
            0.12194962                   1
 p    1 1.00
                   0.8                   1

20 0
 s    5 1.00
          1712.8415853  -0.0054477995804909
          257.64812677  -0.040627174632423
          58.458245853   -0.18111962250584
          16.198367905   -0.46843975563173
          5.0052600809   -0.44616846289231
 s    1 1.00
         0.58731856571                   1
 s    1 1.00
         0.18764592253                   1
 p    3 1.00
          13.571470233  -0.058848116969522
          2.9257372874   -0.32024624762471
         0.79927750754   -0.75328226520436
 p    1 1.00
         0.21954348034                   1
 d    1 1.00
                     1                   1

21 0
 s    3 1.00
             13.010701   0.033485484812989
             1.9622572    0.23472187088125
            0.44453796    0.81377028525955
 s    1 1.00
            0.12194962                   1
 p    1 1.00
                   0.8                   1

22 0
 s    3 1.00
             13.010701   0.033485484812989
             1.9622572    0.23472187088125
            0.44453796    0.81377028525955
 s    1 1.00
            0.12194962                   1
 p    1 1.00
                   0.8                   1

23 0
 s    3 1.00
             13.010701   0.033485484812989
             1.9622572    0.23472187088125
            0.44453796    0.81377028525955
 s    1 1.00
            0.12194962                   1
 p    1 1.00
                   0.8                   1

24 0
 s    5 1.00
          1712.8415853  -0.0054477995804909
          257.64812677  -0.040627174632423
          58.458245853   -0.18111962250584
          16.198367905   -0.46843975563173
          5.0052600809   -0.44616846289231
 s    1 1.00
         0.58731856571                   1
 s    1 1.00
         0.18764592253                   1
 p    3 1.00
          13.571470233  -0.058848116969522
          2.9257372874   -0.32024624762471
         0.79927750754   -0.75328226520436
 p    1 1.00
         0.21954348034                   1
 d    1 1.00
                     1                   1

25 0
 s    3 1.00
             13.010701   0.033485484812989
             1.9622572    0.23472187088125
            0.44453796    0.81377028525955
 s    1 1.00
            0.12194962                   1
 p    1 1.00
                   0.8                   1

26 0
 s    3 1.00
             13.010701   0.033485484812989
             1.9622572    0.23472187088125
            0.44453796    0.81377028525955
 s    1 1.00
            0.12194962                   1
 p    1 1.00
                   0.8                   1

27 0
 s    3 1.00
             13.010701   0.033485484812989
             1.9622572    0.23472187088125
            0.44453796    0.81377028525955
 s    1 1.00
            0.12194962                   1
 p    1 1.00
                   0.8                   1

28 0
 s    5 1.00
          1712.8415853  -0.0054477995804909
          257.64812677  -0.040627174632423
          58.458245853   -0.18111962250584
          16.198367905   -0.46843975563173
          5.0052600809   -0.44616846289231
 s    1 1.00
         0.58731856571                   1
 s    1 1.00
         0.18764592253                   1
 p    3 1.00
          13.571470233  -0.058848116969522
          2.9257372874   -0.32024624762471
         0.79927750754   -0.75328226520436
 p    1 1.00
         0.21954348034                   1
 d    1 1.00
                     1                   1

29 0
 s    3 1.00
             13.010701   0.033485484812989
             1.9622572    0.23472187088125
            0.44453796    0.81377028525955
 s    1 1.00
            0.12194962                   1
 p    1 1.00
                   0.8                   1

30 0
 s    3 1.00
             13.010701   0.033485484812989
             1.9622572    0.23472187088125
            0.44453796    0.81377028525955
 s    1 1.00
            0.12194962                   1
 p    1 1.00
                   0.8                   1

31 0
 s    3 1.00
             13.010701   0.033485484812989
             1.9622572    0.23472187088125
            0.44453796    0.81377028525955
 s    1 1.00
            0.12194962                   1
 p    1 1.00
                   0.8                   1

32 0
 s    5 1.00
          1712.8415853  -0.0054477995804909
          257.64812677  -0.040627174632423
          58.458245853   -0.18111962250584
          16.198367905   -0.46843975563173
          5.0052600809   -0.44616846289231
 s    1 1.00
         0.58731856571                   1
 s    1 1.00
         0.18764592253                   1
 p    3 1.00
          13.571470233  -0.058848116969522
          2.9257372874   -0.32024624762471
         0.79927750754   -0.75328226520436
 p    1 1.00
         0.21954348034                   1
 d    1 1.00
                     1                   1

33 0
 s    3 1.00
             13.010701   0.033485484812989
             1.9622572    0.23472187088125
            0.44453796    0.81377028525955
 s    1 1.00
            0.12194962                   1
 p    1 1.00
                   0.8                   1

34 0
 s    3 1.00
             13.010701   0.033485484812989
             1.9622572    0.23472187088125
            0.44453796    0.81377028525955
 s    1 1.00
            0.12194962                   1
 p    1 1.00
                   0.8                   1

35 0
 s    3 1.00
             13.010701   0.033485484812989
             1.9622572    0.23472187088125
            0.44453796    0.81377028525955
 s    1 1.00
            0.12194962                   1
 p    1 1.00
                   0.8                   1

36 0
 s    5 1.00
          1712.8415853  -0.0054477995804909
          257.64812677  -0.040627174632423
          58.458245853   -0.18111962250584
          16.198367905   -0.46843975563173
          5.0052600809   -0.44616846289231
 s    1 1.00
         0.58731856571                   1
 s    1 1.00
         0.18764592253                   1
 p    3 1.00
          13.571470233  -0.058848116969522
          2.9257372874   -0.32024624762471
         0.79927750754   -0.75328226520436
 p    1 1.00
         0.21954348034                   1
 d    1 1.00
                     1                   1

37 0
 s    3 1.00
             13.010701   0.033485484812989
             1.9622572    0.23472187088125
            0.44453796    0.81377028525955
 s    1 1.00
            0.12194962                   1
 p    1 1.00
                   0.8                   1

38 0
 s    3 1.00
             13.010701   0.033485484812989
             1.9622572    0.23472187088125
            0.44453796    0.81377028525955
 s    1 1.00
            0.12194962                   1
 p    1 1.00
                   0.8                   1

39 0
 s    3 1.00
             13.010701   0.033485484812989
             1.9622572    0.23472187088125
            0.44453796    0.81377028525955
 s    1 1.00
            0.12194962                   1
 p    1 1.00
                   0.8                   1

40 0
 s    5 1.00
          1712.8415853  -0.0054477995804909
          257.64812677  -0.040627174632423
          58.458245853   -0.18111962250584
          16.198367905   -0.46843975563173
          5.0052600809   -0.44616846289231
 s    1 1.00
         0.58731856571                   1
 s    1 1.00
         0.18764592253                   1
 p    3 1.00
          13.571470233  -0.058848116969522
          2.9257372874   -0.32024624762471
         0.79927750754   -0.75328226520436
 p    1 1.00
         0.21954348034                   1
 d    1 1.00
                     1                   1

41 0
 s    3 1.00
             13.010701   0.033485484812989
             1.9622572    0.23472187088125
            0.44453796    0.81377028525955
 s    1 1.00
            0.12194962                   1
 p    1 1.00
                   0.8                   1

42 0
 s    3 1.00
             13.010701   0.033485484812989
             1.9622572    0.23472187088125
            0.44453796    0.81377028525955
 s    1 1.00
            0.12194962                   1
 p    1 1.00
                   0.8                   1

43 0
 s    3 1.00
             13.010701   0.033485484812989
             1.9622572    0.23472187088125
            0.44453796    0.81377028525955
 s    1 1.00
            0.12194962                   1
 p    1 1.00
                   0.8                   1

[5d]
[7f]
[9g]

[MO]
 Sym= A
 Ene=               0
 Spin= Alpha
 Occup=    1.00000
   1    1.3754969870647e-05
   2    -2.9628896450826e-05
   3    0.00023808281325966
   4    -0.00024881595259569
   5    7.139498346681e-05
   6    0.00046019979587335
   7    0.00063329175524834
   8    -0.00049879214942098
   9    -0.0020330836874259
  10    -0.0027396197332117
  11    0.0021790299329448
  12    -0.00032947270058283
  13    -0.00065606507569492
  14    0.00065418840026294
  15    -0.068417256862913
  16     0.044349556312412
  17     0.086554279983806
  18     0.077253180294424
  19     0.041125722287418
  20    -0.050452884976739
  21     0.032806616127477
  22     0.063642857175111
  23     0.056492260772748
  24     0.030304338717695
  25    0.00039748547960618
  26    -0.00030819976806723
  27    -0.00017720221289108
  28    0.00015954018697269
  29    -4.645996716821e-05
  30    0.00040663289172555
  31    -0.00025354000392414
  32    -7.7842756653572e-07
  33    -7.7760485491467e-06
  34    -4.402660455038e-05
  35    -0.00022732405058913
  36    -0.00015098833096806
  37    0.00046065829476812
  38    0.00063896555477536
  39    -0.00049771726423559
  40    -0.0020149852256588
  41    -0.0027884055908275
  42     0.002154904318158
  43    -0.00034202887056523
  44    -0.0006776494273388
  45    0.0005431900515686
  46     0.066379488183074
  47    -0.043260985680905
  48    -0.083911343223678
  49     -0.07514443422136
  50    -0.040055543319585
  51     0.049008645224679
  52    -0.031989243902705
  53    -0.061726763166598
  54     -0.05496127030772
  55     -0.02954003895243
  56    0.00038314252193921
  57    -0.00029759741303714
  58    -0.00017075959630868
  59    0.00015224057966298
  60    -5.473413911943e-05
  61    0.00040062731945484
  62    -0.00024887400379867
  63    0.00026071899852951
  64    -1.4846371662789e-05
  65    -0.00017932517208008
  66    -0.00031733224045466
  67    -0.00050117908108802
  68    0.00036110533825134
  69    -0.00016532515998233
  70    -0.0003533481123086
  71    0.00028863946493614
  72    -8.0810821482912e-06
  73    4.5331958168473e-06
  74    8.7027336111626e-06
  75    9.4431745187419e-06
  76    8.2926338604329e-06
  77     0.042542671788145
  78      0.10815463765322
  79      0.09144261266684
  80      0.15022283673712
  81     0.063258005001186
  82       0.0514250633827
  83     -0.10337964280229
  84    -0.048412672823266
  85    -0.037628327659372
  86    -0.00013289775947173
  87    0.00010455987896297
  88    0.00036121259646816
  89    0.00021470755169713
  90    9.8030002751115e-05
  91    -0.017692844195579
  92    -0.011535976209913
  93    -0.0028166486378369
  94    -0.002986308656742
  95    -0.0032693540793072
  96     -0.01755708842075
  97    -0.013482347094748
  98    -0.0045507262947314
  99    -0.0022555142570786
 100    0.00067042260342016
 101    -0.013828186254198
 102    -0.013578294139328
 103    -0.0050508752939037
 104    -0.00012495817962724
 105    -0.0012700997121131
 106    -0.044217058004839
 107     -0.11273947478909
 108    -0.095893403241875
 109    -0.0033334197042008
 110     -0.10802541467752
 111      0.13745732460862
 112    -0.00074510879640858
 113     0.080465527527845
 114    -0.094693588270621
 115    -8.732492936485e-05
 116    0.00011159829194066
 117    0.00031310835004791
 118    0.00029375722417607
 119    0.00025507873069499
 120     0.009000680771421
 121     0.014653947366606
 122    0.00096795505073473
 123    0.0023006605259153
 124    -0.0046945948566151
 125     0.019891051587396
 126     0.012157841386407
 127    0.00040042756708378
 128    0.0047797474138706
 129    -0.0018579589829125
 130     0.017847333252517
 131     0.012335486182505
 132    -0.0016771864987922
 133    0.0019690396597452
 134    -0.0044048910185143
 135    -0.042091807798382
 136     -0.10682843789988
 137    -0.090517675677779
 138     0.011217424340658
 139      0.10106927569949
 140     -0.13626182187802
 141     -0.01085446345636
 142    -0.068054355858625
 143     0.097435432569788
 144    -0.00025025251981397
 145    0.00013686979686259
 146    0.00014576009821964
 147    0.00031462289308382
 148    0.00014674042787784
 149      0.01715759924771
 150     0.011202600192596
 151    -0.00074890034643718
 152    -0.00070098018221753
 153    0.0051402977830948
 154     0.014606768706409
 155      0.01378309679634
 156    0.0012829472535372
 157    -0.0038206743800419
 158    0.0032739503572855
 159     0.017841277841045
 160     0.013538324118474
 161    -0.0016809141984025
 162    -0.0040631832935674
 163    0.0025600540475132
 164      0.04375043872897
 165      0.11147911794247
 166     0.094752835680625
 167     -0.15600359974668
 168    -0.055065614595777
 169    -0.053030861132674
 170       0.1129769221983
 171     0.034814046490918
 172     0.035160442999297
 173    -0.00026220873238494
 174    0.00011014901156684
 175    0.00023402870563503
 176    0.00031018459042478
 177    3.2230304227723e-05
 178    -0.016907917137615
 179    -0.012499021921783
 180    0.0038707794517488
 181    0.0007470339824803
 182    0.0032997888460547
 183    -0.019568629150146
 184    -0.012099239554099
 185    0.0051089222496565
 186    0.00033470693969945
 187    -0.00083699626326495
 188    -0.010869634137183
 189    -0.013996994436089
 190    0.0038921781687528
 191    0.0029771967300466
 192    0.0019486774883694
 193    5.8913322563257e-05
 194    0.00013708869366679
 195    0.00017723512391209
 196    -7.8133877876494e-05
 197    -0.00028591282512016
 198    9.7634554007669e-06
 199    0.0011934497721206
 200    0.0017169428393004
 201    -0.0009211827856406
 202    -0.00028684236424332
 203    0.00018066489714764
 204    0.00037968162145292
 205    0.00035460638155891
 206    0.00017760270199756
 207    -0.0017235272537615
 208    -0.00076265410028075
 209    0.00036815527975943
 210    -0.000527109845837
 211    6.4033002885274e-05
 212    0.0015173507964363
 213    0.00069946177095949
 214    -0.00052250364360967
 215    0.00034211144302788
 216    -3.8083674911826e-05
 217    0.00016827505521812
 218    0.00010420574699943
 219    0.00035686444307176
 220    0.0004295037426217
 221    -0.00017251882610843
 222    -0.041323082382619
 223     -0.10507226890102
 224    -0.088820123072612
 225      0.14592989073026
 226     0.061955485514244
 227     0.049935144462182
 228     -0.10028840018662
 229    -0.047561022411465
 230    -0.036524032925581
 231    0.00011680371295406
 232    -9.9669583179541e-05
 233    -0.00034288891547718
 234    -0.00022123741036084
 235    -9.8685454451327e-05
 236     0.013180351764261
 237     0.013362977179435
 238    -0.0049260625487268
 239    -0.00017903793984006
 240    -0.001146560783736
 241     0.017411943797777
 242     0.012946541647837
 243    -0.0043212215179423
 244    -0.0023507213255197
 245    0.00067086772025012
 246     0.017166125101846
 247     0.011273285983963
 248    -0.0027550310696926
 249    -0.0027654491515632
 250    -0.0032509160942576
 251     0.042943057007021
 252      0.10953695565014
 253     0.092955028185629
 254     -0.00331814774672
 255     -0.10461357568132
 256      0.13357092246054
 257    -0.00069633732800475
 258     0.077971581908481
 259    -0.092014440523189
 260    8.6147314576697e-05
 261    -0.00010034596702551
 262    -0.00030344342063728
 263    -0.00027723871828877
 264    -0.00023681907072324
 265    -0.019398607034815
 266    -0.011861762148721
 267    0.00020152663801398
 268    0.0046923929845318
 269    -0.0017761022598084
 270    -0.0091208847131666
 271     -0.01385665704335
 272    0.0010019488883036
 273    0.0022295286767136
 274    -0.0045413219508631
 275    -0.016925877083407
 276    -0.012004797381689
 277    -0.0014750176612176
 278    0.0018202315178916
 279    -0.0043988300464009
 280    -0.042567132320675
 281     -0.10848992020841
 282    -0.092236331488733
 283     -0.15191568037138
 284    -0.053392276907641
 285    -0.051531109719475
 286      0.10995564002054
 287     0.033655610708019
 288      0.03407270537396
 289    0.00026025265741248
 290    -0.00010589101411226
 291    -0.00023031186430189
 292    -0.00029789999787571
 293    -3.1796509467873e-05
 294     0.019079074978621
 295     0.011742017832645
 296    0.0049346969613364
 297    0.00044384588810889
 298    -0.00087206631449211
 299     0.016713070854019
 300     0.012143466682289
 301    0.0037918471131633
 302    0.00059473689665249
 303    0.0031896855267274
 304     0.010232889954079
 305     0.013923736040541
 306     0.003791582858005
 307    0.0028482338782727
 308    0.0019378260540398
 309     0.040820448265319
 310      0.10362979243759
 311     0.087617940608108
 312     0.010488285530825
 313     0.097993815009933
 314     -0.13224624451916
 315    -0.010113018116719
 316    -0.065888573625865
 317     0.094573034348743
 318    0.00023490937391607
 319    -0.00014730757284323
 320    -0.00013522194090601
 321    -0.00031392949095183
 322    -0.0001591584959368
 323    -0.016639141342743
 324    -0.010817970075206
 325    -0.00086436516727376
 326    -0.00068221560620396
 327    0.0049900220875974
 328    -0.017023047935868
 329    -0.013281061967211
 330    -0.0014754944121523
 331    -0.0040359618763388
 332    0.0024774345655308
 333    -0.014558775099938
 334    -0.013236848765571
 335    0.0013388487629512
 336    -0.0036438002884566
 337    0.0032033524299719
 338    5.4440205272964e-05
 339    8.4792397771546e-05
 340    0.00017427106414673
 341    -0.00023156369700979
 342    -4.8968194859178e-06