[Molden Format]
made by pyscf v[2.1.1]
[Atoms] (AU)
Cr   1   24     1.56143912275337    -2.46507591990239    -1.82404491365355
Cr   2   24    -1.56139565905251     2.46513072196000     1.82399011159594
O   3   8     0.00002078698737     0.00002834589187    -0.00002645616574
N   4   7     5.12832174930954    -1.10581670549011    -0.60767356069801
H   5   1     6.65216855026694    -1.66292686427314    -1.66487895135981
H   6   1     5.63710405218294    -1.59213394419468     1.18765885421890
H   7   1     5.20084187906585     0.81566059741989    -0.65509245834172
N   8   7     1.71230729763415    -0.02251608677419    -4.99594076510539
H   9   1     0.29795878723855     1.27247165241550    -4.90823668593820
H   10   1     1.50271021425414    -0.85583806455427    -6.73026148236459
H   11   1     3.34039895052705     0.99863710888315    -5.18656310846864
N   12   7     1.41057094787259    -4.90763575303059     1.34785282752440
H   13   1     1.64193389675534    -6.79355407945465     0.97314659318890
H   14   1    -0.29048681014202    -4.81040367474334     2.24006056107205
H   15   1     2.72468082571676    -4.56691435331926     2.71738081369757
N   16   7    -2.00544350380280    -3.82433513431467    -3.04041437688297
H   17   1    -2.87205678671934    -5.05516478184926    -1.83221042023780
H   18   1    -2.03637832046193    -4.76397121413665    -4.73247136936628
H   19   1    -3.24475802163669    -2.37551046050250    -3.28123540501917
N   20   7     3.37923471211299    -5.33493873459111    -3.94755661599306
H   21   1     4.17102617885350    -4.76109883042731    -5.61685374703210
H   22   1     2.26176595533881    -6.82326057413281    -4.47610923358166
H   23   1     4.85383336053810    -6.19899521806112    -3.03922195969837
N   24   7    -5.12827828560868     1.10587339727385     0.60762064836653
H   25   1    -5.15408816501799    -0.81544705836782     0.54662784797006
H   26   1    -5.69743166898356     1.68113626520945    -1.14337690194197
H   27   1    -6.63528195761783     1.56841410187914     1.73267665553083
N   28   7    -1.71226383393328     0.02257088883181     4.99588785277390
H   29   1    -1.62991523860311     0.86667375415253     6.73575491620870
H   30   1    -0.22416876152653    -1.19157625647512     4.98456461383551
H   31   1    -3.28782110056328    -1.08746368536834     5.11339858210385
N   32   7     2.00548696750367     3.82438993637228     3.04035957482536
H   33   1     2.05186651577887     4.68410571893416     4.77402266739321
H   34   1     2.83712330958063     5.12208376337235     1.87805706574587
H   35   1     3.26582090902109     2.38241174030942     3.19051154350492
N   36   7    -1.41052748417173     4.90769055508820    -1.34790762958202
H   37   1    -1.75003190025884     6.78104976168840    -0.99229329828299
H   38   1    -2.65834387984003     4.49309409198925    -2.75785496783350
H   39   1     0.32278033988471     4.89894112313146    -2.18344058692784
N   40   7    -3.37919124841212     5.33499353664873     3.94750181393545
H   41   1    -2.26357064378777     6.83195331430581     4.45515784003860
H   42   1    -4.15358022727151     4.76963661305810     5.62761006813313
H   43   1    -4.86681766873998     6.18449345978121     3.04686590187224
[GTO]
1 0
 s    6 1.00
          51528.086349  0.0017695545768669
          7737.2103487   0.013556436258096
           1760.374847   0.067162645785071
          496.87706544    0.23295905918518
          161.46520598    0.47040576982722
          55.466352268    0.35733072606876
 s    3 1.00
          107.54732999   -0.10605255446629
          12.408671897    0.62543981484169
          5.0423628826    0.44878820793655
 s    3 1.00
          8.5461640165   -0.21819012081133
          1.3900441221    0.70422525667731
         0.56066602876    0.42488555412558
 s    1 1.00
        0.071483705972                   1
 s    1 1.00
        0.028250687604                   1
 p    5 1.00
          640.48536096  0.0093555063746755
          150.69711194   0.068993338492216
          47.503755296     0.2634118959318
          16.934120165    0.51034501651775
           6.240968059    0.33195512953954
 p    3 1.00
          3.0885463206    0.32917682676976
          1.1791047769    0.55491385190365
         0.43369774432    0.23818412855984
 p    1 1.00
              0.120675                   1
 d    4 1.00
          27.559479426   0.036950140313562
          7.4687020327    0.18821519783039
          2.4345903574    0.44641244239929
         0.78244754808     0.5681617303244
 d    1 1.00
         0.21995774311                   1
 f    1 1.00
                 1.147                   1

2 0
 s    6 1.00
          51528.086349  0.0017695545768669
          7737.2103487   0.013556436258096
           1760.374847   0.067162645785071
          496.87706544    0.23295905918518
          161.46520598    0.47040576982722
          55.466352268    0.35733072606876
 s    3 1.00
          107.54732999   -0.10605255446629
          12.408671897    0.62543981484169
          5.0423628826    0.44878820793655
 s    3 1.00
          8.5461640165   -0.21819012081133
          1.3900441221    0.70422525667731
         0.56066602876    0.42488555412558
 s    1 1.00
        0.071483705972                   1
 s    1 1.00
        0.028250687604                   1
 p    5 1.00
          640.48536096  0.0093555063746755
          150.69711194   0.068993338492216
          47.503755296     0.2634118959318
          16.934120165    0.51034501651775
           6.240968059    0.33195512953954
 p    3 1.00
          3.0885463206    0.32917682676976
          1.1791047769    0.55491385190365
         0.43369774432    0.23818412855984
 p    1 1.00
              0.120675                   1
 d    4 1.00
          27.559479426   0.036950140313562
          7.4687020327    0.18821519783039
          2.4345903574    0.44641244239929
         0.78244754808     0.5681617303244
 d    1 1.00
         0.21995774311                   1
 f    1 1.00
                 1.147                   1

3 0
 s    5 1.00
          2266.1767785  -0.0053893503921743
          340.87010191   -0.04023472138896
          77.363135167   -0.18008184205526
           21.47964494   -0.46828857657651
          6.6589433124   -0.44692617160187
 s    1 1.00
         0.80975975668                   1
 s    1 1.00
         0.25530772234                   1
 p    3 1.00
          17.721504317   0.062630248763161
           3.863550544    0.33331138482352
          1.0480920883    0.74148638308122
 p    1 1.00
         0.27641544411                   1
 d    1 1.00
                   1.2                   1

4 0
 s    5 1.00
          1712.8415853  -0.0054477995804909
          257.64812677  -0.040627174632423
          58.458245853   -0.18111962250584
          16.198367905   -0.46843975563173
          5.0052600809   -0.44616846289231
 s    1 1.00
         0.58731856571                   1
 s    1 1.00
         0.18764592253                   1
 p    3 1.00
          13.571470233  -0.058848116969522
          2.9257372874   -0.32024624762471
         0.79927750754   -0.75328226520436
 p    1 1.00
         0.21954348034                   1
 d    1 1.00
                     1                   1

5 0
 s    3 1.00
             13.010701   0.033485484812989
             1.9622572    0.23472187088125
            0.44453796    0.81377028525955
 s    1 1.00
            0.12194962                   1
 p    1 1.00
                   0.8                   1

6 0
 s    3 1.00
             13.010701   0.033485484812989
             1.9622572    0.23472187088125
            0.44453796    0.81377028525955
 s    1 1.00
            0.12194962                   1
 p    1 1.00
                   0.8                   1

7 0
 s    3 1.00
             13.010701   0.033485484812989
             1.9622572    0.23472187088125
            0.44453796    0.81377028525955
 s    1 1.00
            0.12194962                   1
 p    1 1.00
                   0.8                   1

8 0
 s    5 1.00
          1712.8415853  -0.0054477995804909
          257.64812677  -0.040627174632423
          58.458245853   -0.18111962250584
          16.198367905   -0.46843975563173
          5.0052600809   -0.44616846289231
 s    1 1.00
         0.58731856571                   1
 s    1 1.00
         0.18764592253                   1
 p    3 1.00
          13.571470233  -0.058848116969522
          2.9257372874   -0.32024624762471
         0.79927750754   -0.75328226520436
 p    1 1.00
         0.21954348034                   1
 d    1 1.00
                     1                   1

9 0
 s    3 1.00
             13.010701   0.033485484812989
             1.9622572    0.23472187088125
            0.44453796    0.81377028525955
 s    1 1.00
            0.12194962                   1
 p    1 1.00
                   0.8                   1

10 0
 s    3 1.00
             13.010701   0.033485484812989
             1.9622572    0.23472187088125
            0.44453796    0.81377028525955
 s    1 1.00
            0.12194962                   1
 p    1 1.00
                   0.8                   1

11 0
 s    3 1.00
             13.010701   0.033485484812989
             1.9622572    0.23472187088125
            0.44453796    0.81377028525955
 s    1 1.00
            0.12194962                   1
 p    1 1.00
                   0.8                   1

12 0
 s    5 1.00
          1712.8415853  -0.0054477995804909
          257.64812677  -0.040627174632423
          58.458245853   -0.18111962250584
          16.198367905   -0.46843975563173
          5.0052600809   -0.44616846289231
 s    1 1.00
         0.58731856571                   1
 s    1 1.00
         0.18764592253                   1
 p    3 1.00
          13.571470233  -0.058848116969522
          2.9257372874   -0.32024624762471
         0.79927750754   -0.75328226520436
 p    1 1.00
         0.21954348034                   1
 d    1 1.00
                     1                   1

13 0
 s    3 1.00
             13.010701   0.033485484812989
             1.9622572    0.23472187088125
            0.44453796    0.81377028525955
 s    1 1.00
            0.12194962                   1
 p    1 1.00
                   0.8                   1

14 0
 s    3 1.00
             13.010701   0.033485484812989
             1.9622572    0.23472187088125
            0.44453796    0.81377028525955
 s    1 1.00
            0.12194962                   1
 p    1 1.00
                   0.8                   1

15 0
 s    3 1.00
             13.010701   0.033485484812989
             1.9622572    0.23472187088125
            0.44453796    0.81377028525955
 s    1 1.00
            0.12194962                   1
 p    1 1.00
                   0.8                   1

16 0
 s    5 1.00
          1712.8415853  -0.0054477995804909
          257.64812677  -0.040627174632423
          58.458245853   -0.18111962250584
          16.198367905   -0.46843975563173
          5.0052600809   -0.44616846289231
 s    1 1.00
         0.58731856571                   1
 s    1 1.00
         0.18764592253                   1
 p    3 1.00
          13.571470233  -0.058848116969522
          2.9257372874   -0.32024624762471
         0.79927750754   -0.75328226520436
 p    1 1.00
         0.21954348034                   1
 d    1 1.00
                     1                   1

17 0
 s    3 1.00
             13.010701   0.033485484812989
             1.9622572    0.23472187088125
            0.44453796    0.81377028525955
 s    1 1.00
            0.12194962                   1
 p    1 1.00
                   0.8                   1

18 0
 s    3 1.00
             13.010701   0.033485484812989
             1.9622572    0.23472187088125
            0.44453796    0.81377028525955
 s    1 1.00
            0.12194962                   1
 p    1 1.00
                   0.8                   1

19 0
 s    3 1.00
             13.010701   0.033485484812989
             1.9622572    0.23472187088125
            0.44453796    0.81377028525955
 s    1 1.00
            0.12194962                   1
 p    1 1.00
                   0.8                   1

20 0
 s    5 1.00
          1712.8415853  -0.0054477995804909
          257.64812677  -0.040627174632423
          58.458245853   -0.18111962250584
          16.198367905   -0.46843975563173
          5.0052600809   -0.44616846289231
 s    1 1.00
         0.58731856571                   1
 s    1 1.00
         0.18764592253                   1
 p    3 1.00
          13.571470233  -0.058848116969522
          2.9257372874   -0.32024624762471
         0.79927750754   -0.75328226520436
 p    1 1.00
         0.21954348034                   1
 d    1 1.00
                     1                   1

21 0
 s    3 1.00
             13.010701   0.033485484812989
             1.9622572    0.23472187088125
            0.44453796    0.81377028525955
 s    1 1.00
            0.12194962                   1
 p    1 1.00
                   0.8                   1

22 0
 s    3 1.00
             13.010701   0.033485484812989
             1.9622572    0.23472187088125
            0.44453796    0.81377028525955
 s    1 1.00
            0.12194962                   1
 p    1 1.00
                   0.8                   1

23 0
 s    3 1.00
             13.010701   0.033485484812989
             1.9622572    0.23472187088125
            0.44453796    0.81377028525955
 s    1 1.00
            0.12194962                   1
 p    1 1.00
                   0.8                   1

24 0
 s    5 1.00
          1712.8415853  -0.0054477995804909
          257.64812677  -0.040627174632423
          58.458245853   -0.18111962250584
          16.198367905   -0.46843975563173
          5.0052600809   -0.44616846289231
 s    1 1.00
         0.58731856571                   1
 s    1 1.00
         0.18764592253                   1
 p    3 1.00
          13.571470233  -0.058848116969522
          2.9257372874   -0.32024624762471
         0.79927750754   -0.75328226520436
 p    1 1.00
         0.21954348034                   1
 d    1 1.00
                     1                   1

25 0
 s    3 1.00
             13.010701   0.033485484812989
             1.9622572    0.23472187088125
            0.44453796    0.81377028525955
 s    1 1.00
            0.12194962                   1
 p    1 1.00
                   0.8                   1

26 0
 s    3 1.00
             13.010701   0.033485484812989
             1.9622572    0.23472187088125
            0.44453796    0.81377028525955
 s    1 1.00
            0.12194962                   1
 p    1 1.00
                   0.8                   1

27 0
 s    3 1.00
             13.010701   0.033485484812989
             1.9622572    0.23472187088125
            0.44453796    0.81377028525955
 s    1 1.00
            0.12194962                   1
 p    1 1.00
                   0.8                   1

28 0
 s    5 1.00
          1712.8415853  -0.0054477995804909
          257.64812677  -0.040627174632423
          58.458245853   -0.18111962250584
          16.198367905   -0.46843975563173
          5.0052600809   -0.44616846289231
 s    1 1.00
         0.58731856571                   1
 s    1 1.00
         0.18764592253                   1
 p    3 1.00
          13.571470233  -0.058848116969522
          2.9257372874   -0.32024624762471
         0.79927750754   -0.75328226520436
 p    1 1.00
         0.21954348034                   1
 d    1 1.00
                     1                   1

29 0
 s    3 1.00
             13.010701   0.033485484812989
             1.9622572    0.23472187088125
            0.44453796    0.81377028525955
 s    1 1.00
            0.12194962                   1
 p    1 1.00
                   0.8                   1

30 0
 s    3 1.00
             13.010701   0.033485484812989
             1.9622572    0.23472187088125
            0.44453796    0.81377028525955
 s    1 1.00
            0.12194962                   1
 p    1 1.00
                   0.8                   1

31 0
 s    3 1.00
             13.010701   0.033485484812989
             1.9622572    0.23472187088125
            0.44453796    0.81377028525955
 s    1 1.00
            0.12194962                   1
 p    1 1.00
                   0.8                   1

32 0
 s    5 1.00
          1712.8415853  -0.0054477995804909
          257.64812677  -0.040627174632423
          58.458245853   -0.18111962250584
          16.198367905   -0.46843975563173
          5.0052600809   -0.44616846289231
 s    1 1.00
         0.58731856571                   1
 s    1 1.00
         0.18764592253                   1
 p    3 1.00
          13.571470233  -0.058848116969522
          2.9257372874   -0.32024624762471
         0.79927750754   -0.75328226520436
 p    1 1.00
         0.21954348034                   1
 d    1 1.00
                     1                   1

33 0
 s    3 1.00
             13.010701   0.033485484812989
             1.9622572    0.23472187088125
            0.44453796    0.81377028525955
 s    1 1.00
            0.12194962                   1
 p    1 1.00
                   0.8                   1

34 0
 s    3 1.00
             13.010701   0.033485484812989
             1.9622572    0.23472187088125
            0.44453796    0.81377028525955
 s    1 1.00
            0.12194962                   1
 p    1 1.00
                   0.8                   1

35 0
 s    3 1.00
             13.010701   0.033485484812989
             1.9622572    0.23472187088125
            0.44453796    0.81377028525955
 s    1 1.00
            0.12194962                   1
 p    1 1.00
                   0.8                   1

36 0
 s    5 1.00
          1712.8415853  -0.0054477995804909
          257.64812677  -0.040627174632423
          58.458245853   -0.18111962250584
          16.198367905   -0.46843975563173
          5.0052600809   -0.44616846289231
 s    1 1.00
         0.58731856571                   1
 s    1 1.00
         0.18764592253                   1
 p    3 1.00
          13.571470233  -0.058848116969522
          2.9257372874   -0.32024624762471
         0.79927750754   -0.75328226520436
 p    1 1.00
         0.21954348034                   1
 d    1 1.00
                     1                   1

37 0
 s    3 1.00
             13.010701   0.033485484812989
             1.9622572    0.23472187088125
            0.44453796    0.81377028525955
 s    1 1.00
            0.12194962                   1
 p    1 1.00
                   0.8                   1

38 0
 s    3 1.00
             13.010701   0.033485484812989
             1.9622572    0.23472187088125
            0.44453796    0.81377028525955
 s    1 1.00
            0.12194962                   1
 p    1 1.00
                   0.8                   1

39 0
 s    3 1.00
             13.010701   0.033485484812989
             1.9622572    0.23472187088125
            0.44453796    0.81377028525955
 s    1 1.00
            0.12194962                   1
 p    1 1.00
                   0.8                   1

40 0
 s    5 1.00
          1712.8415853  -0.0054477995804909
          257.64812677  -0.040627174632423
          58.458245853   -0.18111962250584
          16.198367905   -0.46843975563173
          5.0052600809   -0.44616846289231
 s    1 1.00
         0.58731856571                   1
 s    1 1.00
         0.18764592253                   1
 p    3 1.00
          13.571470233  -0.058848116969522
          2.9257372874   -0.32024624762471
         0.79927750754   -0.75328226520436
 p    1 1.00
         0.21954348034                   1
 d    1 1.00
                     1                   1

41 0
 s    3 1.00
             13.010701   0.033485484812989
             1.9622572    0.23472187088125
            0.44453796    0.81377028525955
 s    1 1.00
            0.12194962                   1
 p    1 1.00
                   0.8                   1

42 0
 s    3 1.00
             13.010701   0.033485484812989
             1.9622572    0.23472187088125
            0.44453796    0.81377028525955
 s    1 1.00
            0.12194962                   1
 p    1 1.00
                   0.8                   1

43 0
 s    3 1.00
             13.010701   0.033485484812989
             1.9622572    0.23472187088125
            0.44453796    0.81377028525955
 s    1 1.00
            0.12194962                   1
 p    1 1.00
                   0.8                   1

[5d]
[7f]
[9g]

[MO]
 Sym= A
 Ene=               0
 Spin= Alpha
 Occup=    1.00000
   1     0.007381509999558
   2    -0.023498817854541
   3       0.1200746417204
   4      -0.0323237955957
   5    0.0073107589901216
   6     0.021652584054885
   7    -0.034215955488234
   8    -0.025329818925389
   9     -0.11103285751342
  10      0.17539345525179
  11       0.1298081200081
  12    0.0041659688136281
  13    -0.0072773876452335
  14    -0.0061789282045539
  15    0.0036656050735845
  16     0.019801680878492
  17    -0.031182630018919
  18     0.012630492829706
  19      0.02658809161235
  20    0.0023193006606215
  21     0.014548412365124
  22    -0.023054126693829
  23    0.0092606683634747
  24     0.019161448865906
  25    0.0014798718398405
  26    0.00035948855210231
  27    -0.0006121581747572
  28    0.0010817502702477
  29    0.0023478559152013
  30    -0.0016651169505902
  31    -0.00019549527686236
  32    0.0073840475142148
  33    -0.023503677650005
  34      0.12012566159717
  35    -0.032315770957085
  36     0.007288331819074
  37    -0.021650261222198
  38     0.034215880829868
  39     0.025357553331494
  40      0.11103607586539
  41     -0.17541622886216
  42     -0.12992720024496
  43    -0.004077484934335
  44    0.0071726525907998
  45    0.0063924055634022
  46    0.0035041840945904
  47     0.019797562018946
  48    -0.031294282007866
  49     0.012587396677758
  50     0.026422393129916
  51    0.0021939506574114
  52     0.014602149878197
  53    -0.023087184293968
  54    0.0092669210829057
  55     0.019090524201211
  56    -0.0014702515274476
  57    -0.00037094878163472
  58    0.00062458783653684
  59    -0.0010792253705776
  60    -0.0023462709909305
  61    0.0016648551494257
  62    0.00018498573016547
  63      0.63580072400621
  64      -0.2338823667362
  65     -0.13131258992984
  66    0.00034105300549725
  67    -0.00015803159150815
  68    0.00065148714878147
  69    0.00030480662039819
  70    -0.00012000564397839
  71    0.00056276155492171
  72    0.00041373749918355
  73    0.0023624444235012
  74    -0.0037430168208881
  75    0.0015097411270032
  76    0.0031629919197225
  77    0.0081550143819951
  78    -0.0092595345939622
  79     0.005724406057031
  80      0.04593989908306
  81    -0.025397759453453
  82    -0.013894701242267
  83     -0.02875105484891
  84     0.013723699583533
  85     0.008803650730995
  86    -0.00019442745834683
  87    0.0011668643020137
  88    -0.00047284818704828
  89    -0.0017561925367084
  90    0.00074227289571409
  91    -0.042432516137562
  92    -0.0089796256071085
  93    0.0031183711164178
  94    -0.00085290560013941
  95    -0.0027115445148069
  96    -0.0058466728379919
  97    -0.00090620604882603
  98    -0.0014943037232146
  99    0.00013243418386464
 100    0.0014507429523493
 101     0.017585427019936
 102    0.0059551759006142
 103    -0.0020654562276155
 104    -0.0011229878993705
 105    9.7633517003632e-05
 106    0.0086237877267508
 107    -0.0079335275694901
 108    0.0047455234568758
 109     0.026760845385243
 110    -0.017602911624943
 111    -0.047198837352111
 112    -0.014185464802508
 113    0.0094349898903936
 114     0.028642678107778
 115    -0.0016848208547089
 116    -5.5961965372764e-05
 117    -0.00077411678375651
 118    0.00014476212867883
 119    -0.0014504184708033
 120     0.026182901848626
 121    0.0085486003557111
 122    0.0011294079196201
 123    -0.0018819468122769
 124    0.0017761513899237
 125    -0.038908367091184
 126     -0.00855679544457
 127    -0.001423566249105
 128    -0.0017517681521238
 129    -0.0032824144392714
 130    -0.015403085440837
 131    -0.0034725385339783
 132    0.0013433078893919
 133    0.0015193939703903
 134    0.0014780430804528
 135    0.0081210086439501
 136    -0.0093966145506672
 137    0.0058260784241281
 138     0.022348229377304
 139    -0.049398494025361
 140    -0.0015348925573515
 141    -0.012226635309689
 142      0.03077806523821
 143    -2.5456598425193e-05
 144    0.00062115689540459
 145    -0.00060716082220922
 146    -0.00028155190436173
 147    0.0020654602089397
 148    0.00037817149255598
 149    -0.042464682576388
 150    -0.0089722808505439
 151    2.6267024392261e-06
 152    -0.0040933050635595
 153    -0.0010522296406257
 154     0.017274462037673
 155    0.0058156098960163
 156    0.00070075146204502
 157    0.0017710217419852
 158    -0.0013560846141098
 159    -0.0056805289472721
 160    -0.00082147234516537
 161    0.00032691596212197
 162    0.0019989071859693
 163    0.00046399369792318
 164    0.0083624239851921
 165    -0.0086114535922519
 166    0.0049982562055255
 167    -0.0031907426573052
 168    -0.045838173081496
 169    -0.031002793603588
 170    0.0029601543022322
 171     0.026276577531848
 172     0.019625334875067
 173    -0.0014354429529021
 174    5.0818532296653e-05
 175    -0.0013839671498899
 176    0.00026881077057242
 177    -0.0011764150455542
 178    -0.010214002542011
 179    -0.0023044195982209
 180    -0.00022795953881969
 181    0.00025217848456317
 182    0.0022488679916775
 183    -0.041036199826407
 184    -0.0087904057484421
 185    1.997133836796e-06
 186    -0.0012434238602368
 187    -0.003917085000996
 188     0.022005040709231
 189    0.0070200020418807
 190     0.002234062951417
 191    -1.9209110861394e-06
 192    0.0012770692938768
 193    -0.022087279849433
 194    -0.098399832416099
 195    -0.049514459418533
 196    -0.020963409778421
 197     0.033213226144482
 198     0.024642385995375
 199     0.017373890133835
 200    -0.027080617201717
 201    -0.019977887373542
 202    1.3532501375136e-05
 203    0.00010109903802493
 204    -0.0001698311108505
 205    7.0551344707985e-05
 206    0.00013384040730319
 207    -0.016872929421364
 208    0.00093095796759306
 209    0.0018700706444235
 210    -0.00028793357023824
 211    -0.0032581824016687
 212     -0.01673568967046
 213    0.0010594961981075
 214    -0.00088032024135891
 215    -0.0032850624675924
 216    -0.0015764567006099
 217    -0.017445479773537
 218    0.0010387896667278
 219    0.0029142038395408
 220    -0.0024290626933793
 221    0.00054824827414699
 222     0.008256896225853
 223    -0.0090082625333291
 224    0.0056773533703529
 225    -0.046215789115231
 226     0.026134543268569
 227     0.014057003152972
 228     0.028841234048287
 229    -0.013911498334698
 230    -0.0088354952518455
 231    -0.00039450062610249
 232     0.001168960934975
 233    -0.00028523441326907
 234    -0.001841019571253
 235    0.00061012796660284
 236     0.019770944350608
 237    0.0066850198094275
 238    0.0020346405604454
 239    0.0013796650239584
 240    4.6755182014744e-06
 241    -0.0082454804348885
 242    -0.0014459199172007
 243    0.0013468527145283
 244    -1.4805854622808e-05
 245    -0.0016889545354757
 246    -0.041840563738457
 247    -0.0089324820732712
 248    -0.0029982341363277
 249    0.0005381220124843
 250    0.0028596764575183
 251    0.0084858815219139
 252    -0.0082761309109777
 253    0.0047186975930761
 254    -0.026354183643109
 255      0.01684927564912
 256     0.046732557512716
 257      0.01402097974185
 258    -0.0092791890200011
 259    -0.028506480496981
 260    -0.0017381740415625
 261    0.00010651948450453
 262    -0.00089631617966768
 263    0.00033893547977813
 264    -0.0012387911207994
 265    -0.040017610608316
 266    -0.0086885966957048
 267    0.0010742106386746
 268    0.0018503168045047
 269    0.0034378883604215
 270     0.024228994629609
 271     0.007890305313382
 272    -0.0010329393303508
 273    0.0016357707678284
 274    -0.0019013570233575
 275    -0.012876801736421
 276    -0.002891554994301
 277    -0.0010542781904174
 278    -0.0014110313826045
 279    -0.0016037033467956
 280      0.00842430445447
 281    -0.0084425709235576
 282     0.004750423597184
 283    0.0028145604826615
 284     0.046314402330725
 285     0.031224497718047
 286    -0.0028407800200035
 287    -0.026378324918725
 288    -0.019663817583684
 289    -0.0015360561271932
 290    1.0923937587076e-05
 291    -0.0011817036256268
 292    0.00024760997372235
 293    -0.0012795583586415
 294    -0.040322160588327
 295    -0.0087508132008459
 296    4.4035345251531e-05
 297    0.00096958003645715
 298    0.0039563385050297
 299    -0.012030412706522
 300    -0.0026629957784959
 301    0.00032065745378251
 302    -5.3101243390403e-05
 303    -0.0023254480197007
 304     0.023503412084096
 305    0.0076946807262237
 306    -0.0023852079016207
 307    0.00013355906302694
 308    -0.0011908388698856
 309    0.0080752872819499
 310    -0.0095401577364361
 311    0.0060843955768339
 312    -0.021730388016717
 313     0.049234711804601
 314    0.0012917171417675
 315     0.012049389702839
 316     -0.03075660154906
 317    0.00016395755470681
 318    0.00065154812615672
 319    -0.00042366079408294
 320    -0.00026577641713298
 321    0.0020377596527344
 322    0.00060802737682836
 323    -0.043006922539585
 324    -0.0090364539655736
 325    -0.00034818169691754
 326     0.004127913438562
 327    0.0010141063485375
 328    -0.0033616220279316
 329    -0.00033062022332136
 330    -0.00011873089742824
 331    -0.0020097579610121
 332    -0.00027069244806568
 333      0.01517692264024
 334    0.0050754994114854
 335    -0.00050651287481042
 336    -0.001842653240264
 337    0.0011847331670939
 338     -0.02209360269801
 339    -0.098420878129635
 340    -0.049549464203468
 341     0.020983400829431
 342    -0.033215095565242
 343    -0.024660010551657
 344    -0.017363653876595