[Molden Format]
made by pyscf v[2.1.1]
[Atoms] (AU)
Cr   1   24     1.56143912275337    -2.46507591990239    -1.82404491365355
Cr   2   24    -1.56139565905251     2.46513072196000     1.82399011159594
O   3   8     0.00002078698737     0.00002834589187    -0.00002645616574
N   4   7     5.12832174930954    -1.10581670549011    -0.60767356069801
H   5   1     6.65216855026694    -1.66292686427314    -1.66487895135981
H   6   1     5.63710405218294    -1.59213394419468     1.18765885421890
H   7   1     5.20084187906585     0.81566059741989    -0.65509245834172
N   8   7     1.71230729763415    -0.02251608677419    -4.99594076510539
H   9   1     0.29795878723855     1.27247165241550    -4.90823668593820
H   10   1     1.50271021425414    -0.85583806455427    -6.73026148236459
H   11   1     3.34039895052705     0.99863710888315    -5.18656310846864
N   12   7     1.41057094787259    -4.90763575303059     1.34785282752440
H   13   1     1.64193389675534    -6.79355407945465     0.97314659318890
H   14   1    -0.29048681014202    -4.81040367474334     2.24006056107205
H   15   1     2.72468082571676    -4.56691435331926     2.71738081369757
N   16   7    -2.00544350380280    -3.82433513431467    -3.04041437688297
H   17   1    -2.87205678671934    -5.05516478184926    -1.83221042023780
H   18   1    -2.03637832046193    -4.76397121413665    -4.73247136936628
H   19   1    -3.24475802163669    -2.37551046050250    -3.28123540501917
N   20   7     3.37923471211299    -5.33493873459111    -3.94755661599306
H   21   1     4.17102617885350    -4.76109883042731    -5.61685374703210
H   22   1     2.26176595533881    -6.82326057413281    -4.47610923358166
H   23   1     4.85383336053810    -6.19899521806112    -3.03922195969837
N   24   7    -5.12827828560868     1.10587339727385     0.60762064836653
H   25   1    -5.15408816501799    -0.81544705836782     0.54662784797006
H   26   1    -5.69743166898356     1.68113626520945    -1.14337690194197
H   27   1    -6.63528195761783     1.56841410187914     1.73267665553083
N   28   7    -1.71226383393328     0.02257088883181     4.99588785277390
H   29   1    -1.62991523860311     0.86667375415253     6.73575491620870
H   30   1    -0.22416876152653    -1.19157625647512     4.98456461383551
H   31   1    -3.28782110056328    -1.08746368536834     5.11339858210385
N   32   7     2.00548696750367     3.82438993637228     3.04035957482536
H   33   1     2.05186651577887     4.68410571893416     4.77402266739321
H   34   1     2.83712330958063     5.12208376337235     1.87805706574587
H   35   1     3.26582090902109     2.38241174030942     3.19051154350492
N   36   7    -1.41052748417173     4.90769055508820    -1.34790762958202
H   37   1    -1.75003190025884     6.78104976168840    -0.99229329828299
H   38   1    -2.65834387984003     4.49309409198925    -2.75785496783350
H   39   1     0.32278033988471     4.89894112313146    -2.18344058692784
N   40   7    -3.37919124841212     5.33499353664873     3.94750181393545
H   41   1    -2.26357064378777     6.83195331430581     4.45515784003860
H   42   1    -4.15358022727151     4.76963661305810     5.62761006813313
H   43   1    -4.86681766873998     6.18449345978121     3.04686590187224
[GTO]
1 0
 s    6 1.00
          51528.086349  0.0017695545768669
          7737.2103487   0.013556436258096
           1760.374847   0.067162645785071
          496.87706544    0.23295905918518
          161.46520598    0.47040576982722
          55.466352268    0.35733072606876
 s    3 1.00
          107.54732999   -0.10605255446629
          12.408671897    0.62543981484169
          5.0423628826    0.44878820793655
 s    3 1.00
          8.5461640165   -0.21819012081133
          1.3900441221    0.70422525667731
         0.56066602876    0.42488555412558
 s    1 1.00
        0.071483705972                   1
 s    1 1.00
        0.028250687604                   1
 p    5 1.00
          640.48536096  0.0093555063746755
          150.69711194   0.068993338492216
          47.503755296     0.2634118959318
          16.934120165    0.51034501651775
           6.240968059    0.33195512953954
 p    3 1.00
          3.0885463206    0.32917682676976
          1.1791047769    0.55491385190365
         0.43369774432    0.23818412855984
 p    1 1.00
              0.120675                   1
 d    4 1.00
          27.559479426   0.036950140313562
          7.4687020327    0.18821519783039
          2.4345903574    0.44641244239929
         0.78244754808     0.5681617303244
 d    1 1.00
         0.21995774311                   1
 f    1 1.00
                 1.147                   1

2 0
 s    6 1.00
          51528.086349  0.0017695545768669
          7737.2103487   0.013556436258096
           1760.374847   0.067162645785071
          496.87706544    0.23295905918518
          161.46520598    0.47040576982722
          55.466352268    0.35733072606876
 s    3 1.00
          107.54732999   -0.10605255446629
          12.408671897    0.62543981484169
          5.0423628826    0.44878820793655
 s    3 1.00
          8.5461640165   -0.21819012081133
          1.3900441221    0.70422525667731
         0.56066602876    0.42488555412558
 s    1 1.00
        0.071483705972                   1
 s    1 1.00
        0.028250687604                   1
 p    5 1.00
          640.48536096  0.0093555063746755
          150.69711194   0.068993338492216
          47.503755296     0.2634118959318
          16.934120165    0.51034501651775
           6.240968059    0.33195512953954
 p    3 1.00
          3.0885463206    0.32917682676976
          1.1791047769    0.55491385190365
         0.43369774432    0.23818412855984
 p    1 1.00
              0.120675                   1
 d    4 1.00
          27.559479426   0.036950140313562
          7.4687020327    0.18821519783039
          2.4345903574    0.44641244239929
         0.78244754808     0.5681617303244
 d    1 1.00
         0.21995774311                   1
 f    1 1.00
                 1.147                   1

3 0
 s    5 1.00
          2266.1767785  -0.0053893503921743
          340.87010191   -0.04023472138896
          77.363135167   -0.18008184205526
           21.47964494   -0.46828857657651
          6.6589433124   -0.44692617160187
 s    1 1.00
         0.80975975668                   1
 s    1 1.00
         0.25530772234                   1
 p    3 1.00
          17.721504317   0.062630248763161
           3.863550544    0.33331138482352
          1.0480920883    0.74148638308122
 p    1 1.00
         0.27641544411                   1
 d    1 1.00
                   1.2                   1

4 0
 s    5 1.00
          1712.8415853  -0.0054477995804909
          257.64812677  -0.040627174632423
          58.458245853   -0.18111962250584
          16.198367905   -0.46843975563173
          5.0052600809   -0.44616846289231
 s    1 1.00
         0.58731856571                   1
 s    1 1.00
         0.18764592253                   1
 p    3 1.00
          13.571470233  -0.058848116969522
          2.9257372874   -0.32024624762471
         0.79927750754   -0.75328226520436
 p    1 1.00
         0.21954348034                   1
 d    1 1.00
                     1                   1

5 0
 s    3 1.00
             13.010701   0.033485484812989
             1.9622572    0.23472187088125
            0.44453796    0.81377028525955
 s    1 1.00
            0.12194962                   1
 p    1 1.00
                   0.8                   1

6 0
 s    3 1.00
             13.010701   0.033485484812989
             1.9622572    0.23472187088125
            0.44453796    0.81377028525955
 s    1 1.00
            0.12194962                   1
 p    1 1.00
                   0.8                   1

7 0
 s    3 1.00
             13.010701   0.033485484812989
             1.9622572    0.23472187088125
            0.44453796    0.81377028525955
 s    1 1.00
            0.12194962                   1
 p    1 1.00
                   0.8                   1

8 0
 s    5 1.00
          1712.8415853  -0.0054477995804909
          257.64812677  -0.040627174632423
          58.458245853   -0.18111962250584
          16.198367905   -0.46843975563173
          5.0052600809   -0.44616846289231
 s    1 1.00
         0.58731856571                   1
 s    1 1.00
         0.18764592253                   1
 p    3 1.00
          13.571470233  -0.058848116969522
          2.9257372874   -0.32024624762471
         0.79927750754   -0.75328226520436
 p    1 1.00
         0.21954348034                   1
 d    1 1.00
                     1                   1

9 0
 s    3 1.00
             13.010701   0.033485484812989
             1.9622572    0.23472187088125
            0.44453796    0.81377028525955
 s    1 1.00
            0.12194962                   1
 p    1 1.00
                   0.8                   1

10 0
 s    3 1.00
             13.010701   0.033485484812989
             1.9622572    0.23472187088125
            0.44453796    0.81377028525955
 s    1 1.00
            0.12194962                   1
 p    1 1.00
                   0.8                   1

11 0
 s    3 1.00
             13.010701   0.033485484812989
             1.9622572    0.23472187088125
            0.44453796    0.81377028525955
 s    1 1.00
            0.12194962                   1
 p    1 1.00
                   0.8                   1

12 0
 s    5 1.00
          1712.8415853  -0.0054477995804909
          257.64812677  -0.040627174632423
          58.458245853   -0.18111962250584
          16.198367905   -0.46843975563173
          5.0052600809   -0.44616846289231
 s    1 1.00
         0.58731856571                   1
 s    1 1.00
         0.18764592253                   1
 p    3 1.00
          13.571470233  -0.058848116969522
          2.9257372874   -0.32024624762471
         0.79927750754   -0.75328226520436
 p    1 1.00
         0.21954348034                   1
 d    1 1.00
                     1                   1

13 0
 s    3 1.00
             13.010701   0.033485484812989
             1.9622572    0.23472187088125
            0.44453796    0.81377028525955
 s    1 1.00
            0.12194962                   1
 p    1 1.00
                   0.8                   1

14 0
 s    3 1.00
             13.010701   0.033485484812989
             1.9622572    0.23472187088125
            0.44453796    0.81377028525955
 s    1 1.00
            0.12194962                   1
 p    1 1.00
                   0.8                   1

15 0
 s    3 1.00
             13.010701   0.033485484812989
             1.9622572    0.23472187088125
            0.44453796    0.81377028525955
 s    1 1.00
            0.12194962                   1
 p    1 1.00
                   0.8                   1

16 0
 s    5 1.00
          1712.8415853  -0.0054477995804909
          257.64812677  -0.040627174632423
          58.458245853   -0.18111962250584
          16.198367905   -0.46843975563173
          5.0052600809   -0.44616846289231
 s    1 1.00
         0.58731856571                   1
 s    1 1.00
         0.18764592253                   1
 p    3 1.00
          13.571470233  -0.058848116969522
          2.9257372874   -0.32024624762471
         0.79927750754   -0.75328226520436
 p    1 1.00
         0.21954348034                   1
 d    1 1.00
                     1                   1

17 0
 s    3 1.00
             13.010701   0.033485484812989
             1.9622572    0.23472187088125
            0.44453796    0.81377028525955
 s    1 1.00
            0.12194962                   1
 p    1 1.00
                   0.8                   1

18 0
 s    3 1.00
             13.010701   0.033485484812989
             1.9622572    0.23472187088125
            0.44453796    0.81377028525955
 s    1 1.00
            0.12194962                   1
 p    1 1.00
                   0.8                   1

19 0
 s    3 1.00
             13.010701   0.033485484812989
             1.9622572    0.23472187088125
            0.44453796    0.81377028525955
 s    1 1.00
            0.12194962                   1
 p    1 1.00
                   0.8                   1

20 0
 s    5 1.00
          1712.8415853  -0.0054477995804909
          257.64812677  -0.040627174632423
          58.458245853   -0.18111962250584
          16.198367905   -0.46843975563173
          5.0052600809   -0.44616846289231
 s    1 1.00
         0.58731856571                   1
 s    1 1.00
         0.18764592253                   1
 p    3 1.00
          13.571470233  -0.058848116969522
          2.9257372874   -0.32024624762471
         0.79927750754   -0.75328226520436
 p    1 1.00
         0.21954348034                   1
 d    1 1.00
                     1                   1

21 0
 s    3 1.00
             13.010701   0.033485484812989
             1.9622572    0.23472187088125
            0.44453796    0.81377028525955
 s    1 1.00
            0.12194962                   1
 p    1 1.00
                   0.8                   1

22 0
 s    3 1.00
             13.010701   0.033485484812989
             1.9622572    0.23472187088125
            0.44453796    0.81377028525955
 s    1 1.00
            0.12194962                   1
 p    1 1.00
                   0.8                   1

23 0
 s    3 1.00
             13.010701   0.033485484812989
             1.9622572    0.23472187088125
            0.44453796    0.81377028525955
 s    1 1.00
            0.12194962                   1
 p    1 1.00
                   0.8                   1

24 0
 s    5 1.00
          1712.8415853  -0.0054477995804909
          257.64812677  -0.040627174632423
          58.458245853   -0.18111962250584
          16.198367905   -0.46843975563173
          5.0052600809   -0.44616846289231
 s    1 1.00
         0.58731856571                   1
 s    1 1.00
         0.18764592253                   1
 p    3 1.00
          13.571470233  -0.058848116969522
          2.9257372874   -0.32024624762471
         0.79927750754   -0.75328226520436
 p    1 1.00
         0.21954348034                   1
 d    1 1.00
                     1                   1

25 0
 s    3 1.00
             13.010701   0.033485484812989
             1.9622572    0.23472187088125
            0.44453796    0.81377028525955
 s    1 1.00
            0.12194962                   1
 p    1 1.00
                   0.8                   1

26 0
 s    3 1.00
             13.010701   0.033485484812989
             1.9622572    0.23472187088125
            0.44453796    0.81377028525955
 s    1 1.00
            0.12194962                   1
 p    1 1.00
                   0.8                   1

27 0
 s    3 1.00
             13.010701   0.033485484812989
             1.9622572    0.23472187088125
            0.44453796    0.81377028525955
 s    1 1.00
            0.12194962                   1
 p    1 1.00
                   0.8                   1

28 0
 s    5 1.00
          1712.8415853  -0.0054477995804909
          257.64812677  -0.040627174632423
          58.458245853   -0.18111962250584
          16.198367905   -0.46843975563173
          5.0052600809   -0.44616846289231
 s    1 1.00
         0.58731856571                   1
 s    1 1.00
         0.18764592253                   1
 p    3 1.00
          13.571470233  -0.058848116969522
          2.9257372874   -0.32024624762471
         0.79927750754   -0.75328226520436
 p    1 1.00
         0.21954348034                   1
 d    1 1.00
                     1                   1

29 0
 s    3 1.00
             13.010701   0.033485484812989
             1.9622572    0.23472187088125
            0.44453796    0.81377028525955
 s    1 1.00
            0.12194962                   1
 p    1 1.00
                   0.8                   1

30 0
 s    3 1.00
             13.010701   0.033485484812989
             1.9622572    0.23472187088125
            0.44453796    0.81377028525955
 s    1 1.00
            0.12194962                   1
 p    1 1.00
                   0.8                   1

31 0
 s    3 1.00
             13.010701   0.033485484812989
             1.9622572    0.23472187088125
            0.44453796    0.81377028525955
 s    1 1.00
            0.12194962                   1
 p    1 1.00
                   0.8                   1

32 0
 s    5 1.00
          1712.8415853  -0.0054477995804909
          257.64812677  -0.040627174632423
          58.458245853   -0.18111962250584
          16.198367905   -0.46843975563173
          5.0052600809   -0.44616846289231
 s    1 1.00
         0.58731856571                   1
 s    1 1.00
         0.18764592253                   1
 p    3 1.00
          13.571470233  -0.058848116969522
          2.9257372874   -0.32024624762471
         0.79927750754   -0.75328226520436
 p    1 1.00
         0.21954348034                   1
 d    1 1.00
                     1                   1

33 0
 s    3 1.00
             13.010701   0.033485484812989
             1.9622572    0.23472187088125
            0.44453796    0.81377028525955
 s    1 1.00
            0.12194962                   1
 p    1 1.00
                   0.8                   1

34 0
 s    3 1.00
             13.010701   0.033485484812989
             1.9622572    0.23472187088125
            0.44453796    0.81377028525955
 s    1 1.00
            0.12194962                   1
 p    1 1.00
                   0.8                   1

35 0
 s    3 1.00
             13.010701   0.033485484812989
             1.9622572    0.23472187088125
            0.44453796    0.81377028525955
 s    1 1.00
            0.12194962                   1
 p    1 1.00
                   0.8                   1

36 0
 s    5 1.00
          1712.8415853  -0.0054477995804909
          257.64812677  -0.040627174632423
          58.458245853   -0.18111962250584
          16.198367905   -0.46843975563173
          5.0052600809   -0.44616846289231
 s    1 1.00
         0.58731856571                   1
 s    1 1.00
         0.18764592253                   1
 p    3 1.00
          13.571470233  -0.058848116969522
          2.9257372874   -0.32024624762471
         0.79927750754   -0.75328226520436
 p    1 1.00
         0.21954348034                   1
 d    1 1.00
                     1                   1

37 0
 s    3 1.00
             13.010701   0.033485484812989
             1.9622572    0.23472187088125
            0.44453796    0.81377028525955
 s    1 1.00
            0.12194962                   1
 p    1 1.00
                   0.8                   1

38 0
 s    3 1.00
             13.010701   0.033485484812989
             1.9622572    0.23472187088125
            0.44453796    0.81377028525955
 s    1 1.00
            0.12194962                   1
 p    1 1.00
                   0.8                   1

39 0
 s    3 1.00
             13.010701   0.033485484812989
             1.9622572    0.23472187088125
            0.44453796    0.81377028525955
 s    1 1.00
            0.12194962                   1
 p    1 1.00
                   0.8                   1

40 0
 s    5 1.00
          1712.8415853  -0.0054477995804909
          257.64812677  -0.040627174632423
          58.458245853   -0.18111962250584
          16.198367905   -0.46843975563173
          5.0052600809   -0.44616846289231
 s    1 1.00
         0.58731856571                   1
 s    1 1.00
         0.18764592253                   1
 p    3 1.00
          13.571470233  -0.058848116969522
          2.9257372874   -0.32024624762471
         0.79927750754   -0.75328226520436
 p    1 1.00
         0.21954348034                   1
 d    1 1.00
                     1                   1

41 0
 s    3 1.00
             13.010701   0.033485484812989
             1.9622572    0.23472187088125
            0.44453796    0.81377028525955
 s    1 1.00
            0.12194962                   1
 p    1 1.00
                   0.8                   1

42 0
 s    3 1.00
             13.010701   0.033485484812989
             1.9622572    0.23472187088125
            0.44453796    0.81377028525955
 s    1 1.00
            0.12194962                   1
 p    1 1.00
                   0.8                   1

43 0
 s    3 1.00
             13.010701   0.033485484812989
             1.9622572    0.23472187088125
            0.44453796    0.81377028525955
 s    1 1.00
            0.12194962                   1
 p    1 1.00
                   0.8                   1

[5d]
[7f]
[9g]

[MO]
 Sym= A
 Ene=               0
 Spin= Alpha
 Occup=    1.00000
   1    -0.012700408218016
   2     0.033979212879176
   3     -0.21851677976397
   4     0.032868898815728
   5     0.012060221671949
   6    -0.034383588604885
   7     0.054298400067093
   8      0.04019008983562
   9      0.17782645225326
  10     -0.28077121376324
  11      -0.2077613123974
  12    0.0048254940237477
  13    -0.0069662795768423
  14    -0.0040880717289554
  15    -0.0080771261346721
  16    -0.044475617918022
  17     0.070226571075115
  18    -0.028371531455302
  19    -0.059690375752116
  20    -0.002745407793009
  21    -0.017956231518258
  22     0.028667055336107
  23    -0.011518668360141
  24    -0.023689932448343
  25    -0.00071786482954135
  26    -0.00018229314352009
  27    0.00030489513658659
  28    -0.00052798223262161
  29    -0.0011423893885487
  30    0.00080169877623778
  31    9.3687848391184e-05
  32     0.010900572988167
  33     -0.01821064493185
  34       0.2054198948918
  35    -0.048305802216002
  36    0.00078706628711892
  37    -0.014194091987254
  38     0.022395410607015
  39     0.016565427238446
  40     0.073776868519102
  41      -0.1164034056095
  42    -0.086061462671269
  43    -0.022318469972144
  44      0.03516515301719
  45     0.025507431129623
  46     0.010787876098855
  47     0.058295524651917
  48    -0.091986112761233
  49     0.037219349277923
  50     0.078526344112496
  51    0.0052266014409631
  52     0.028289713144245
  53    -0.044809881242549
  54     0.018136429510702
  55      0.03820473227499
  56    -0.0040259952637752
  57    -0.0010771203941287
  58    0.0016992670317466
  59    -0.0030061141958221
  60    -0.006355807528346
  61    0.0045517159808144
  62    0.00056123069446201
  63     -0.16504111036306
  64     -0.32574059610515
  65     -0.25792823273124
  66      0.10797747020325
  67       -0.169885886699
  68     -0.12437736254077
  69     0.094774977056521
  70     -0.14927910472129
  71     -0.10929918128303
  72     0.000670646016901
  73    0.0035941834077901
  74    -0.0056764382331076
  75    0.0022997262262528
  76    0.0048788600659063
  77    -0.0069959153198146
  78     0.026570611317372
  79    -0.0041020095605868
  80    -0.062609374990399
  81      0.02084659085801
  82     0.010919013470236
  83     0.039930654151998
  84    -0.007602249422837
  85    -0.0034745775811152
  86    0.00024128006442892
  87    -0.0015033509365634
  88    0.00054199826759241
  89    0.0017265486838592
  90    -0.0011123014719473
  91     0.057193597623265
  92    0.0073023813053467
  93    -0.0042860581791398
  94    0.0011569453556924
  95    0.0036067860272005
  96     0.015006219131464
  97    -0.0010319895668412
  98    0.0015124719562835
  99    1.8988311520273e-05
 100    -0.002682826036142
 101    -0.0092373730305445
 102    -0.006074861514846
 103    0.0020739989156518
 104    -0.00012032474940172
 105    -0.00024251596184553
 106    -0.0072938961489984
 107     0.025688163368578
 108    -0.0033097428945814
 109    -0.027062747256543
 110    0.0082333806019571
 111     0.062398146666623
 112     0.013972067728215
 113    0.00066534371482315
 114    -0.038400416089513
 115    0.0017123333060759
 116    -6.8974589933492e-05
 117    0.0012303896134997
 118    -5.90604746113e-05
 119    0.0013882953103779
 120    -0.017464187977818
 121    -0.0078182376558879
 122    -0.00022426988556336
 123    0.00089275516477853
 124    -0.001930673055553
 125      0.05280986491844
 126    0.0067780136754559
 127    0.0018569200466374
 128    0.0024208135658566
 129    0.0045472740404934
 130     0.025377858889478
 131    0.0013028606111565
 132    -0.0023832077095665
 133    -0.0023055459454911
 134    -0.0018233591091675
 135    -0.0069761588374805
 136     0.026677873496073
 137    -0.0042141871273083
 138    -0.022070765194819
 139     0.062267393189523
 140    -0.010402826575786
 141     0.010789976889171
 142    -0.037551799381707
 143     0.012095434712205
 144    -0.00089821485296682
 145    0.00060280338402138
 146    0.0006328199307815
 147    -0.0022157713264551
 148    -0.00056884046630115
 149     0.057244435646768
 150    0.0072831527116493
 151    -2.8468481245809e-05
 152    0.0055673447692045
 153    0.0013452111177103
 154    -0.0089042305888398
 155    -0.0060463767832432
 156    0.00031071952511595
 157    -0.0019582007834949
 158    0.00067598231975655
 159     0.014824998808229
 160    -0.0011373235449281
 161    -0.0010071690857961
 162    -0.0025741174580966
 163    -0.0013256658415447
 164    -0.0071608742931832
 165     0.025990147737883
 166    -0.0032748928368749
 167     0.017890226979267
 168     0.052697104289993
 169     0.038388612209114
 170    -0.016435159301923
 171    -0.029480459389573
 172    -0.022466624109926
 173     0.001622725343803
 174    -0.00021841815620304
 175    0.0016053731914389
 176    -0.00059703101577788
 177    0.0010022740442241
 178     0.019674905630484
 179    0.00014897369911607
 180    0.00069061800347501
 181    0.0002487411308623
 182    -0.0033585800749642
 183     0.055426400281772
 184    0.0072909828298515
 185    4.2620770330025e-05
 186    0.0017750479416846
 187     0.005328411850956
 188    -0.013528351937915
 189    -0.0072510824803747
 190    -0.0014093096648004
 191    -0.00093061337933335
 192    -0.0012710696616463
 193     0.040216945628917
 194      0.15976860249416
 195     0.098491333575806
 196     0.044642989306965
 197    -0.070395061049931
 198    -0.051970538483123
 199    -0.037625728957695
 200     0.059034543473243
 201     0.043674378590584
 202    -0.00013321254094912
 203    -0.0007750622081312
 204    0.0012505495323434
 205    -0.00050670073428636
 206    -0.0010600579058275
 207      0.02081655185937
 208    -0.0062906698506518
 209    -0.0025489959488971
 210    0.00024864583389184
 211    0.0043972752482444
 212     0.020598456734906
 213    -0.0064183787398917
 214    0.0013010995962255
 215    0.0044409248410986
 216    0.0020442451943502
 217     0.021477146302786
 218    -0.0067395549704315
 219    -0.0039352200069476
 220    0.0032018773960898
 221    -0.00088540063323536
 222     0.013126083301742
 223     0.044537000452952
 224     0.034349747322075
 225    -0.037144079936232
 226    -0.010678613579559
 227    -0.0092294151233453
 228     0.031844348217259
 229    0.0080431961670069
 230    0.0075291256709928
 231    0.0001701700001552
 232    0.00097135771306563
 233    -6.563261962922e-05
 234    -0.00094823292827541
 235    0.00084599367245527
 236    0.0064506343034368
 237    0.00051413805004908
 238    0.00020181078524455
 239    0.0012402979267596
 240    0.00067609988690805
 241    0.0040045774501526
 242    -0.0008134762668471
 243    0.0013102659888272
 244    0.00048328054231385
 245    0.00082349548294112
 246    -0.0030941116710845
 247    -0.0029710095674924
 248    0.0015521975274091
 249    0.00016539583588875
 250    0.00010890737138245
 251      0.01303084640486
 252     0.044246149614375
 253     0.034284388405371
 254    -0.0027405700323781
 255    -0.021318717727213
 256     0.033672298533474
 257    0.0032919432270838
 258     0.017402073571214
 259     -0.02907747759869
 260    -0.0010846699063895
 261    0.00045882643123052
 262    -0.00087787087733369
 263    -0.00016006417733833
 264    -0.0002244447882132
 265    -0.0026640615612698
 266    -0.0028822411268795
 267    0.00018416442127241
 268    0.00053782781436367
 269    -0.0014687147510049
 270     0.006208483299138
 271    0.0010017612253322
 272    -0.00069899008598896
 273    0.0012369564880729
 274    6.3912557374845e-05
 275    0.0034392068841688
 276    -0.0011142328822257
 277    0.00034055811967071
 278    0.0011409029293478
 279    -0.0011387458534057
 280     0.013056125357164
 281     0.044327834718706
 282     0.034258250678106
 283     0.033634937631131
 284     0.015950207868984
 285     0.014580631507868
 286    -0.028040305156719
 287    -0.014644331148857
 288    -0.012580384654701
 289    -0.00073800084955716
 290    -9.712290900389e-05
 291    -0.0010153736530606
 292    0.0007510930172565
 293    -0.00039247987967921
 294    -0.0027770902299369
 295    -0.0029388180957558
 296    -0.0011040471247802
 297    -0.00079528612275653
 298    -0.00078023625847675
 299    0.0035876755244884
 300    -0.00098635007881501
 301    -0.0014839349968264
 302    -0.00069901384867585
 303    -0.00017078642496134
 304    0.0062653208463767
 305    0.00091454492725924
 306    -0.0011702476340159
 307    0.00075610896884804
 308    0.00028183653273224
 309     0.013186035631563
 310     0.044767250232949
 311     0.034538275370687
 312    -0.00023186918730268
 313     0.027435135087543
 314    -0.028606869209393
 315    0.00080677374890498
 316    -0.023526725312607
 317      0.02368759304692
 318    0.00094178943115592
 319    -0.00020002817362676
 320    -0.00023458742460711
 321    0.0012040151343554
 322    0.00065196313358732
 323    -0.0035699103642038
 324    -0.0031026071112268
 325    0.00015279909768847
 326    -0.0012691962307616
 327    0.00084832163089636
 328    0.0048374756971599
 329    -0.00078179444794135
 330    6.4372896451367e-05
 331    -0.0005583094005442
 332    0.0014598366039469
 333    0.0064112464044897
 334    0.00019102369226068
 335    -0.00072988847266464
 336    6.074886833245e-05
 337     0.001229406933111
 338    0.0010777565625978
 339    0.0039427443205956
 340     0.018734687956821
 341    0.0014157409693623
 342    -0.0022631702963944
 343    -0.0016728568105612
 344    0.0070480637168949