[Molden Format]
made by pyscf v[2.1.1]
[Atoms] (AU)
Cr   1   24     1.56143912275337    -2.46507591990239    -1.82404491365355
Cr   2   24    -1.56139565905251     2.46513072196000     1.82399011159594
O   3   8     0.00002078698737     0.00002834589187    -0.00002645616574
N   4   7     5.12832174930954    -1.10581670549011    -0.60767356069801
H   5   1     6.65216855026694    -1.66292686427314    -1.66487895135981
H   6   1     5.63710405218294    -1.59213394419468     1.18765885421890
H   7   1     5.20084187906585     0.81566059741989    -0.65509245834172
N   8   7     1.71230729763415    -0.02251608677419    -4.99594076510539
H   9   1     0.29795878723855     1.27247165241550    -4.90823668593820
H   10   1     1.50271021425414    -0.85583806455427    -6.73026148236459
H   11   1     3.34039895052705     0.99863710888315    -5.18656310846864
N   12   7     1.41057094787259    -4.90763575303059     1.34785282752440
H   13   1     1.64193389675534    -6.79355407945465     0.97314659318890
H   14   1    -0.29048681014202    -4.81040367474334     2.24006056107205
H   15   1     2.72468082571676    -4.56691435331926     2.71738081369757
N   16   7    -2.00544350380280    -3.82433513431467    -3.04041437688297
H   17   1    -2.87205678671934    -5.05516478184926    -1.83221042023780
H   18   1    -2.03637832046193    -4.76397121413665    -4.73247136936628
H   19   1    -3.24475802163669    -2.37551046050250    -3.28123540501917
N   20   7     3.37923471211299    -5.33493873459111    -3.94755661599306
H   21   1     4.17102617885350    -4.76109883042731    -5.61685374703210
H   22   1     2.26176595533881    -6.82326057413281    -4.47610923358166
H   23   1     4.85383336053810    -6.19899521806112    -3.03922195969837
N   24   7    -5.12827828560868     1.10587339727385     0.60762064836653
H   25   1    -5.15408816501799    -0.81544705836782     0.54662784797006
H   26   1    -5.69743166898356     1.68113626520945    -1.14337690194197
H   27   1    -6.63528195761783     1.56841410187914     1.73267665553083
N   28   7    -1.71226383393328     0.02257088883181     4.99588785277390
H   29   1    -1.62991523860311     0.86667375415253     6.73575491620870
H   30   1    -0.22416876152653    -1.19157625647512     4.98456461383551
H   31   1    -3.28782110056328    -1.08746368536834     5.11339858210385
N   32   7     2.00548696750367     3.82438993637228     3.04035957482536
H   33   1     2.05186651577887     4.68410571893416     4.77402266739321
H   34   1     2.83712330958063     5.12208376337235     1.87805706574587
H   35   1     3.26582090902109     2.38241174030942     3.19051154350492
N   36   7    -1.41052748417173     4.90769055508820    -1.34790762958202
H   37   1    -1.75003190025884     6.78104976168840    -0.99229329828299
H   38   1    -2.65834387984003     4.49309409198925    -2.75785496783350
H   39   1     0.32278033988471     4.89894112313146    -2.18344058692784
N   40   7    -3.37919124841212     5.33499353664873     3.94750181393545
H   41   1    -2.26357064378777     6.83195331430581     4.45515784003860
H   42   1    -4.15358022727151     4.76963661305810     5.62761006813313
H   43   1    -4.86681766873998     6.18449345978121     3.04686590187224
[GTO]
1 0
 s    6 1.00
          51528.086349  0.0017695545768669
          7737.2103487   0.013556436258096
           1760.374847   0.067162645785071
          496.87706544    0.23295905918518
          161.46520598    0.47040576982722
          55.466352268    0.35733072606876
 s    3 1.00
          107.54732999   -0.10605255446629
          12.408671897    0.62543981484169
          5.0423628826    0.44878820793655
 s    3 1.00
          8.5461640165   -0.21819012081133
          1.3900441221    0.70422525667731
         0.56066602876    0.42488555412558
 s    1 1.00
        0.071483705972                   1
 s    1 1.00
        0.028250687604                   1
 p    5 1.00
          640.48536096  0.0093555063746755
          150.69711194   0.068993338492216
          47.503755296     0.2634118959318
          16.934120165    0.51034501651775
           6.240968059    0.33195512953954
 p    3 1.00
          3.0885463206    0.32917682676976
          1.1791047769    0.55491385190365
         0.43369774432    0.23818412855984
 p    1 1.00
              0.120675                   1
 d    4 1.00
          27.559479426   0.036950140313562
          7.4687020327    0.18821519783039
          2.4345903574    0.44641244239929
         0.78244754808     0.5681617303244
 d    1 1.00
         0.21995774311                   1
 f    1 1.00
                 1.147                   1

2 0
 s    6 1.00
          51528.086349  0.0017695545768669
          7737.2103487   0.013556436258096
           1760.374847   0.067162645785071
          496.87706544    0.23295905918518
          161.46520598    0.47040576982722
          55.466352268    0.35733072606876
 s    3 1.00
          107.54732999   -0.10605255446629
          12.408671897    0.62543981484169
          5.0423628826    0.44878820793655
 s    3 1.00
          8.5461640165   -0.21819012081133
          1.3900441221    0.70422525667731
         0.56066602876    0.42488555412558
 s    1 1.00
        0.071483705972                   1
 s    1 1.00
        0.028250687604                   1
 p    5 1.00
          640.48536096  0.0093555063746755
          150.69711194   0.068993338492216
          47.503755296     0.2634118959318
          16.934120165    0.51034501651775
           6.240968059    0.33195512953954
 p    3 1.00
          3.0885463206    0.32917682676976
          1.1791047769    0.55491385190365
         0.43369774432    0.23818412855984
 p    1 1.00
              0.120675                   1
 d    4 1.00
          27.559479426   0.036950140313562
          7.4687020327    0.18821519783039
          2.4345903574    0.44641244239929
         0.78244754808     0.5681617303244
 d    1 1.00
         0.21995774311                   1
 f    1 1.00
                 1.147                   1

3 0
 s    5 1.00
          2266.1767785  -0.0053893503921743
          340.87010191   -0.04023472138896
          77.363135167   -0.18008184205526
           21.47964494   -0.46828857657651
          6.6589433124   -0.44692617160187
 s    1 1.00
         0.80975975668                   1
 s    1 1.00
         0.25530772234                   1
 p    3 1.00
          17.721504317   0.062630248763161
           3.863550544    0.33331138482352
          1.0480920883    0.74148638308122
 p    1 1.00
         0.27641544411                   1
 d    1 1.00
                   1.2                   1

4 0
 s    5 1.00
          1712.8415853  -0.0054477995804909
          257.64812677  -0.040627174632423
          58.458245853   -0.18111962250584
          16.198367905   -0.46843975563173
          5.0052600809   -0.44616846289231
 s    1 1.00
         0.58731856571                   1
 s    1 1.00
         0.18764592253                   1
 p    3 1.00
          13.571470233  -0.058848116969522
          2.9257372874   -0.32024624762471
         0.79927750754   -0.75328226520436
 p    1 1.00
         0.21954348034                   1
 d    1 1.00
                     1                   1

5 0
 s    3 1.00
             13.010701   0.033485484812989
             1.9622572    0.23472187088125
            0.44453796    0.81377028525955
 s    1 1.00
            0.12194962                   1
 p    1 1.00
                   0.8                   1

6 0
 s    3 1.00
             13.010701   0.033485484812989
             1.9622572    0.23472187088125
            0.44453796    0.81377028525955
 s    1 1.00
            0.12194962                   1
 p    1 1.00
                   0.8                   1

7 0
 s    3 1.00
             13.010701   0.033485484812989
             1.9622572    0.23472187088125
            0.44453796    0.81377028525955
 s    1 1.00
            0.12194962                   1
 p    1 1.00
                   0.8                   1

8 0
 s    5 1.00
          1712.8415853  -0.0054477995804909
          257.64812677  -0.040627174632423
          58.458245853   -0.18111962250584
          16.198367905   -0.46843975563173
          5.0052600809   -0.44616846289231
 s    1 1.00
         0.58731856571                   1
 s    1 1.00
         0.18764592253                   1
 p    3 1.00
          13.571470233  -0.058848116969522
          2.9257372874   -0.32024624762471
         0.79927750754   -0.75328226520436
 p    1 1.00
         0.21954348034                   1
 d    1 1.00
                     1                   1

9 0
 s    3 1.00
             13.010701   0.033485484812989
             1.9622572    0.23472187088125
            0.44453796    0.81377028525955
 s    1 1.00
            0.12194962                   1
 p    1 1.00
                   0.8                   1

10 0
 s    3 1.00
             13.010701   0.033485484812989
             1.9622572    0.23472187088125
            0.44453796    0.81377028525955
 s    1 1.00
            0.12194962                   1
 p    1 1.00
                   0.8                   1

11 0
 s    3 1.00
             13.010701   0.033485484812989
             1.9622572    0.23472187088125
            0.44453796    0.81377028525955
 s    1 1.00
            0.12194962                   1
 p    1 1.00
                   0.8                   1

12 0
 s    5 1.00
          1712.8415853  -0.0054477995804909
          257.64812677  -0.040627174632423
          58.458245853   -0.18111962250584
          16.198367905   -0.46843975563173
          5.0052600809   -0.44616846289231
 s    1 1.00
         0.58731856571                   1
 s    1 1.00
         0.18764592253                   1
 p    3 1.00
          13.571470233  -0.058848116969522
          2.9257372874   -0.32024624762471
         0.79927750754   -0.75328226520436
 p    1 1.00
         0.21954348034                   1
 d    1 1.00
                     1                   1

13 0
 s    3 1.00
             13.010701   0.033485484812989
             1.9622572    0.23472187088125
            0.44453796    0.81377028525955
 s    1 1.00
            0.12194962                   1
 p    1 1.00
                   0.8                   1

14 0
 s    3 1.00
             13.010701   0.033485484812989
             1.9622572    0.23472187088125
            0.44453796    0.81377028525955
 s    1 1.00
            0.12194962                   1
 p    1 1.00
                   0.8                   1

15 0
 s    3 1.00
             13.010701   0.033485484812989
             1.9622572    0.23472187088125
            0.44453796    0.81377028525955
 s    1 1.00
            0.12194962                   1
 p    1 1.00
                   0.8                   1

16 0
 s    5 1.00
          1712.8415853  -0.0054477995804909
          257.64812677  -0.040627174632423
          58.458245853   -0.18111962250584
          16.198367905   -0.46843975563173
          5.0052600809   -0.44616846289231
 s    1 1.00
         0.58731856571                   1
 s    1 1.00
         0.18764592253                   1
 p    3 1.00
          13.571470233  -0.058848116969522
          2.9257372874   -0.32024624762471
         0.79927750754   -0.75328226520436
 p    1 1.00
         0.21954348034                   1
 d    1 1.00
                     1                   1

17 0
 s    3 1.00
             13.010701   0.033485484812989
             1.9622572    0.23472187088125
            0.44453796    0.81377028525955
 s    1 1.00
            0.12194962                   1
 p    1 1.00
                   0.8                   1

18 0
 s    3 1.00
             13.010701   0.033485484812989
             1.9622572    0.23472187088125
            0.44453796    0.81377028525955
 s    1 1.00
            0.12194962                   1
 p    1 1.00
                   0.8                   1

19 0
 s    3 1.00
             13.010701   0.033485484812989
             1.9622572    0.23472187088125
            0.44453796    0.81377028525955
 s    1 1.00
            0.12194962                   1
 p    1 1.00
                   0.8                   1

20 0
 s    5 1.00
          1712.8415853  -0.0054477995804909
          257.64812677  -0.040627174632423
          58.458245853   -0.18111962250584
          16.198367905   -0.46843975563173
          5.0052600809   -0.44616846289231
 s    1 1.00
         0.58731856571                   1
 s    1 1.00
         0.18764592253                   1
 p    3 1.00
          13.571470233  -0.058848116969522
          2.9257372874   -0.32024624762471
         0.79927750754   -0.75328226520436
 p    1 1.00
         0.21954348034                   1
 d    1 1.00
                     1                   1

21 0
 s    3 1.00
             13.010701   0.033485484812989
             1.9622572    0.23472187088125
            0.44453796    0.81377028525955
 s    1 1.00
            0.12194962                   1
 p    1 1.00
                   0.8                   1

22 0
 s    3 1.00
             13.010701   0.033485484812989
             1.9622572    0.23472187088125
            0.44453796    0.81377028525955
 s    1 1.00
            0.12194962                   1
 p    1 1.00
                   0.8                   1

23 0
 s    3 1.00
             13.010701   0.033485484812989
             1.9622572    0.23472187088125
            0.44453796    0.81377028525955
 s    1 1.00
            0.12194962                   1
 p    1 1.00
                   0.8                   1

24 0
 s    5 1.00
          1712.8415853  -0.0054477995804909
          257.64812677  -0.040627174632423
          58.458245853   -0.18111962250584
          16.198367905   -0.46843975563173
          5.0052600809   -0.44616846289231
 s    1 1.00
         0.58731856571                   1
 s    1 1.00
         0.18764592253                   1
 p    3 1.00
          13.571470233  -0.058848116969522
          2.9257372874   -0.32024624762471
         0.79927750754   -0.75328226520436
 p    1 1.00
         0.21954348034                   1
 d    1 1.00
                     1                   1

25 0
 s    3 1.00
             13.010701   0.033485484812989
             1.9622572    0.23472187088125
            0.44453796    0.81377028525955
 s    1 1.00
            0.12194962                   1
 p    1 1.00
                   0.8                   1

26 0
 s    3 1.00
             13.010701   0.033485484812989
             1.9622572    0.23472187088125
            0.44453796    0.81377028525955
 s    1 1.00
            0.12194962                   1
 p    1 1.00
                   0.8                   1

27 0
 s    3 1.00
             13.010701   0.033485484812989
             1.9622572    0.23472187088125
            0.44453796    0.81377028525955
 s    1 1.00
            0.12194962                   1
 p    1 1.00
                   0.8                   1

28 0
 s    5 1.00
          1712.8415853  -0.0054477995804909
          257.64812677  -0.040627174632423
          58.458245853   -0.18111962250584
          16.198367905   -0.46843975563173
          5.0052600809   -0.44616846289231
 s    1 1.00
         0.58731856571                   1
 s    1 1.00
         0.18764592253                   1
 p    3 1.00
          13.571470233  -0.058848116969522
          2.9257372874   -0.32024624762471
         0.79927750754   -0.75328226520436
 p    1 1.00
         0.21954348034                   1
 d    1 1.00
                     1                   1

29 0
 s    3 1.00
             13.010701   0.033485484812989
             1.9622572    0.23472187088125
            0.44453796    0.81377028525955
 s    1 1.00
            0.12194962                   1
 p    1 1.00
                   0.8                   1

30 0
 s    3 1.00
             13.010701   0.033485484812989
             1.9622572    0.23472187088125
            0.44453796    0.81377028525955
 s    1 1.00
            0.12194962                   1
 p    1 1.00
                   0.8                   1

31 0
 s    3 1.00
             13.010701   0.033485484812989
             1.9622572    0.23472187088125
            0.44453796    0.81377028525955
 s    1 1.00
            0.12194962                   1
 p    1 1.00
                   0.8                   1

32 0
 s    5 1.00
          1712.8415853  -0.0054477995804909
          257.64812677  -0.040627174632423
          58.458245853   -0.18111962250584
          16.198367905   -0.46843975563173
          5.0052600809   -0.44616846289231
 s    1 1.00
         0.58731856571                   1
 s    1 1.00
         0.18764592253                   1
 p    3 1.00
          13.571470233  -0.058848116969522
          2.9257372874   -0.32024624762471
         0.79927750754   -0.75328226520436
 p    1 1.00
         0.21954348034                   1
 d    1 1.00
                     1                   1

33 0
 s    3 1.00
             13.010701   0.033485484812989
             1.9622572    0.23472187088125
            0.44453796    0.81377028525955
 s    1 1.00
            0.12194962                   1
 p    1 1.00
                   0.8                   1

34 0
 s    3 1.00
             13.010701   0.033485484812989
             1.9622572    0.23472187088125
            0.44453796    0.81377028525955
 s    1 1.00
            0.12194962                   1
 p    1 1.00
                   0.8                   1

35 0
 s    3 1.00
             13.010701   0.033485484812989
             1.9622572    0.23472187088125
            0.44453796    0.81377028525955
 s    1 1.00
            0.12194962                   1
 p    1 1.00
                   0.8                   1

36 0
 s    5 1.00
          1712.8415853  -0.0054477995804909
          257.64812677  -0.040627174632423
          58.458245853   -0.18111962250584
          16.198367905   -0.46843975563173
          5.0052600809   -0.44616846289231
 s    1 1.00
         0.58731856571                   1
 s    1 1.00
         0.18764592253                   1
 p    3 1.00
          13.571470233  -0.058848116969522
          2.9257372874   -0.32024624762471
         0.79927750754   -0.75328226520436
 p    1 1.00
         0.21954348034                   1
 d    1 1.00
                     1                   1

37 0
 s    3 1.00
             13.010701   0.033485484812989
             1.9622572    0.23472187088125
            0.44453796    0.81377028525955
 s    1 1.00
            0.12194962                   1
 p    1 1.00
                   0.8                   1

38 0
 s    3 1.00
             13.010701   0.033485484812989
             1.9622572    0.23472187088125
            0.44453796    0.81377028525955
 s    1 1.00
            0.12194962                   1
 p    1 1.00
                   0.8                   1

39 0
 s    3 1.00
             13.010701   0.033485484812989
             1.9622572    0.23472187088125
            0.44453796    0.81377028525955
 s    1 1.00
            0.12194962                   1
 p    1 1.00
                   0.8                   1

40 0
 s    5 1.00
          1712.8415853  -0.0054477995804909
          257.64812677  -0.040627174632423
          58.458245853   -0.18111962250584
          16.198367905   -0.46843975563173
          5.0052600809   -0.44616846289231
 s    1 1.00
         0.58731856571                   1
 s    1 1.00
         0.18764592253                   1
 p    3 1.00
          13.571470233  -0.058848116969522
          2.9257372874   -0.32024624762471
         0.79927750754   -0.75328226520436
 p    1 1.00
         0.21954348034                   1
 d    1 1.00
                     1                   1

41 0
 s    3 1.00
             13.010701   0.033485484812989
             1.9622572    0.23472187088125
            0.44453796    0.81377028525955
 s    1 1.00
            0.12194962                   1
 p    1 1.00
                   0.8                   1

42 0
 s    3 1.00
             13.010701   0.033485484812989
             1.9622572    0.23472187088125
            0.44453796    0.81377028525955
 s    1 1.00
            0.12194962                   1
 p    1 1.00
                   0.8                   1

43 0
 s    3 1.00
             13.010701   0.033485484812989
             1.9622572    0.23472187088125
            0.44453796    0.81377028525955
 s    1 1.00
            0.12194962                   1
 p    1 1.00
                   0.8                   1

[5d]
[7f]
[9g]

[MO]
 Sym= A
 Ene=               0
 Spin= Alpha
 Occup=    1.00000
   1    2.7759304191263e-05
   2    -4.6735091846902e-05
   3    0.00049349850696196
   4    0.00019506287928244
   5    0.00021794336847991
   6    0.00013779362077179
   7    6.5874646619773e-05
   8    -0.00012560645609294
   9    -0.00042606535815782
  10    -0.00020827720530441
  11    0.00039901663101931
  12    -0.00015189897823062
  13    -0.00013698264191314
  14    -0.00032372862842136
  15     0.095411260047921
  16    -0.061109395310559
  17      -0.1215137489544
  18     -0.10687512223309
  19    -0.056280369682051
  20     0.069701505679298
  21    -0.044871718606612
  22    -0.088473955944373
  23    -0.077647824676487
  24    -0.041254937034489
  25    -0.00049084005199035
  26    0.00043699934649094
  27    0.00016040386108245
  28    -0.00027486634212624
  29    8.8584855357826e-05
  30    -0.000586538403376
  31    0.00031713187656722
  32    -3.7433738087765e-05
  33    6.9583010576756e-05
  34    -0.0006585132957705
  35    0.00026720615767423
  36    -0.00013031463587408
  37    1.7618382374386e-05
  38    -5.4371393523365e-05
  39    -2.791469199788e-05
  40    -6.4226407975782e-05
  41    0.00019248925857216
  42    0.00010038332765496
  43    -2.0776436920777e-05
  44    -0.00032661871842456
  45    -1.899861118428e-05
  46    -0.00024634062531007
  47    0.0001043542032375
  48    0.00041280116997503
  49    0.00015896798004301
  50    5.1797477777607e-05
  51    -0.00080516038316588
  52    0.00066388712721321
  53    0.00084012076227967
  54    0.00079492168228723
  55    0.00056746893079701
  56    4.6425044610474e-06
  57    1.6805861116062e-05
  58    -2.7167807193578e-06
  59    6.2249740550983e-06
  60    2.8646318543829e-05
  61    -4.2439253059234e-05
  62    1.2000897649304e-05
  63    -0.00073888410798998
  64    -0.0019382584280255
  65    -0.0011188400811123
  66    -0.0013377689802941
  67    0.0013331221605631
  68    0.0013954757208804
  69    -0.0010738908947669
  70    0.0012942604669411
  71    0.0010490561919975
  72    0.00039703493699041
  73    -0.0002389232102118
  74    -0.00053452535921199
  75    -0.00042230976700937
  76    -0.00021125501209032
  77     -0.06030097222901
  78     -0.15279448126295
  79     -0.13153207043067
  80      -0.2109982149835
  81    -0.085650801560002
  82    -0.071502830807223
  83      0.14735482968111
  84     0.065153813709054
  85      0.05147832572359
  86    0.00023397637672671
  87    -0.00027644885886377
  88    -0.00046031562443421
  89    -0.00011884271044422
  90    -0.00021385908745948
  91     0.025199480436833
  92     0.015852935901922
  93    0.0039870611009058
  94    0.0040795358632994
  95    0.0044596088783972
  96     0.024741215738565
  97     0.018971501058744
  98    0.0061960105509444
  99    0.0031695497379751
 100    -0.00089387392577756
 101      0.01706421064024
 102     0.019254166828298
 103    0.0071685783918092
 104    0.0003566718244008
 105    0.0018620856122908
 106     0.060414581226925
 107       0.1530505062826
 108      0.13256428823096
 109    0.0040642287131458
 110      0.15015472253587
 111     -0.18774425638858
 112    0.00081156832041666
 113     -0.11056459931845
 114      0.13079887756804
 115    0.0001363431015125
 116    -0.00014856990698628
 117    -0.0004474394322649
 118    -0.0003991478812748
 119    -0.00032024874907115
 120     -0.01489926567604
 121    -0.020411688886552
 122    -0.0016394151514448
 123    -0.0031319567171195
 124    0.0066692586245116
 125    -0.026123824438439
 126    -0.016253363267037
 127    -0.00043566836616266
 128    -0.0065411887040127
 129    0.0026922800081614
 130    -0.025451196352851
 131    -0.017213184876191
 132    0.0024925624775441
 133    -0.0027886238378973
 134    0.0058395496126216
 135     0.060792949059827
 136      0.15426946742507
 137      0.13273537843247
 138    -0.013275019642266
 139     -0.14528331191992
 140      0.19102894874612
 141     0.013092147328113
 142      0.10033998771987
 143     -0.13704359296389
 144    0.00044821902835406
 145    -0.000277142543409
 146    -0.00027100732058555
 147    -0.00016382310919734
 148    -0.00015594792239148
 149    -0.025156069572279
 150    -0.015840115559539
 151    0.0010070989640518
 152     0.001092254307573
 153    -0.0071272854038206
 154     -0.01747692102099
 155    -0.019625397907317
 156    -0.0016026027657833
 157    0.0054398799907901
 158    -0.0048604776980435
 159    -0.024493196560252
 160    -0.019148342309729
 161    0.0023078185385058
 162    0.0055916838213176
 163    -0.0036645888994183
 164    -0.059983264219532
 165     -0.15174430404212
 166     -0.13147658047837
 167      0.21460080388954
 168     0.075682827461712
 169     0.071614542504271
 170     -0.15511479485092
 171    -0.049208405977688
 172    -0.049039347631854
 173    0.00040308440641081
 174    -0.00016398604504794
 175    -0.00029916800169478
 176    -0.00042774431427917
 177    -2.6486354785667e-05
 178     0.024621089943335
 179     0.017426562043389
 180    -0.0052455349878439
 181    -0.00074590849171407
 182    -0.0044584347569674
 183     0.026003928558083
 184     0.016071895096651
 185    -0.0070330136968816
 186    -0.00049173808088872
 187    0.00099449445583171
 188     0.015975707193837
 189     0.019434083789609
 190    -0.0054302759378471
 191    -0.0043228249577632
 192    -0.0026381355895538
 193    -0.00030408298223563
 194    -0.0006417182394803
 195    -0.00058585247006879
 196    -0.00024992987016929
 197    0.0013117045846286
 198    0.00040963907377171
 199    -0.0013630847416124
 200    -0.0028168873278847
 201    0.00095269860958348
 202    0.00040505260176897
 203    -0.00025627479220866
 204    -0.00052773894277155
 205    -0.00047568081285895
 206    -0.00024319380506812
 207    0.0023721298490518
 208     0.001206266777842
 209    -0.00049510976921283
 210    0.00067953091696277
 211    -0.00010402957950614
 212    -0.0017613177933635
 213    -0.0010196684193742
 214    0.0007523444676619
 215    -0.00046720365759497
 216    5.8208875389359e-05
 217    -1.9766282631693e-05
 218    -0.00011949571372789
 219    -0.00050614529071291
 220    -0.00061045137323341
 221    0.00021115304922052
 222    -0.00013463137578926
 223    0.00031051792485136
 224    -0.0026118332383944
 225    -0.00071154188611696
 226    -0.0010527060880927
 227    -0.00075271357067636
 228    -0.0014730286267471
 229    0.0018703621591772
 230    0.0013943050572516
 231    2.0641891864255e-05
 232    -9.6759392821307e-05
 233    3.3561607342799e-05
 234    0.0001185911008236
 235    -5.0865279113745e-05
 236    -0.00021025412814484
 237    0.00076048773004116
 238    -6.5950224998741e-05
 239    5.3297744263832e-05
 240    -7.6677579850664e-05
 241    -0.00015088376448822
 242    -5.4597740700368e-06
 243    0.0001875995295863
 244    -7.7936338152054e-05
 245    -8.0591939434673e-05
 246    -0.00021971055402609
 247    -0.00048053217199672
 248    -5.9023023520885e-05
 249    3.0070315814169e-05
 250    0.00016273126929886
 251    0.00024370207605899
 252    -8.381891209168e-05
 253    0.0018761772892037
 254    -0.00049694351970033
 255    0.00087738935360627
 256    8.5800707178447e-05
 257    0.00089674431097708
 258    -0.0012567890236421
 259    -0.0018951322497705
 260    -8.6372947822192e-05
 261    9.2827514705799e-06
 262    -7.755699417209e-05
 263    2.6047157314642e-05
 264    -4.224907833318e-05
 265    9.5473013709762e-05
 266    0.00028233511466894
 267    -6.0029771222656e-05
 268    -0.00010406764368402
 269    -6.2944125692463e-05
 270    0.00014266878055255
 271    8.810107873907e-05
 272    7.9020759539449e-05
 273    9.7193016302098e-05
 274    -0.00019472280403541
 275    -6.4276764398276e-05
 276    -9.1360404325797e-05
 277    -4.5325861333395e-05
 278    6.7833315528014e-05
 279    0.00017767200405799
 280    -0.00011917043128262
 281    0.00020019219983772
 282    -0.0017422283472652
 283    0.0014573850221994
 284    -0.00028212645714518
 285    -5.9065535297729e-06
 286    -0.00081389658477698
 287    0.0016753308805321
 288     0.001483232265844
 289    9.5641493968143e-05
 290    -8.2284357049601e-06
 291    8.9557410737327e-05
 292    -3.1337786544958e-05
 293    4.8868654980386e-05
 294    -0.00028199576525719
 295    -0.00033280900691801
 296    -7.031043666359e-05
 297    -1.2452073945883e-06
 298    0.00015200164678358
 299    -0.00013364694270716
 300    6.2203684591679e-05
 301    -2.8108484659265e-05
 302    -0.0001225426551298
 303    -0.00017373863103556
 304    -0.00029911640657605
 305    -0.00012595991659124
 306    0.00012922961590512
 307    0.00010825084578028
 308    4.724308254237e-05
 309    0.00029040769766897
 310    -0.00017152370960203
 311    0.0029333724336265
 312    -0.00041091775396598
 313    0.00033334185913126
 314    0.00087563513968263
 315    0.0012910469671756
 316    -0.0025808445272802
 317    -0.00097707573079251
 318    3.9233207936302e-05
 319    -6.8139344342038e-06
 320    -3.4767946456373e-05
 321    0.00014988200058879
 322    4.7886376054782e-05
 323    1.0659504677673e-05
 324    0.00048761545468716
 325    -5.9293874848213e-06
 326    -0.00012438548345808
 327    -9.3789078151339e-05
 328    -1.3994820820641e-05
 329    2.9595460792059e-05
 330    -0.0001146386809124
 331    0.00017307217730579
 332    1.1996415419038e-05
 333    -2.1499873327601e-05
 334    -0.0007159767708193
 335    9.6167077942829e-05
 336    4.4690900659909e-05
 337    7.0287308030663e-05
 338    -0.00032990709379882
 339    -0.00091226278522471