[Molden Format]
made by pyscf v[2.1.1]
[Atoms] (AU)
Cr   1   24     1.56143912275337    -2.46507591990239    -1.82404491365355
Cr   2   24    -1.56139565905251     2.46513072196000     1.82399011159594
O   3   8     0.00002078698737     0.00002834589187    -0.00002645616574
N   4   7     5.12832174930954    -1.10581670549011    -0.60767356069801
H   5   1     6.65216855026694    -1.66292686427314    -1.66487895135981
H   6   1     5.63710405218294    -1.59213394419468     1.18765885421890
H   7   1     5.20084187906585     0.81566059741989    -0.65509245834172
N   8   7     1.71230729763415    -0.02251608677419    -4.99594076510539
H   9   1     0.29795878723855     1.27247165241550    -4.90823668593820
H   10   1     1.50271021425414    -0.85583806455427    -6.73026148236459
H   11   1     3.34039895052705     0.99863710888315    -5.18656310846864
N   12   7     1.41057094787259    -4.90763575303059     1.34785282752440
H   13   1     1.64193389675534    -6.79355407945465     0.97314659318890
H   14   1    -0.29048681014202    -4.81040367474334     2.24006056107205
H   15   1     2.72468082571676    -4.56691435331926     2.71738081369757
N   16   7    -2.00544350380280    -3.82433513431467    -3.04041437688297
H   17   1    -2.87205678671934    -5.05516478184926    -1.83221042023780
H   18   1    -2.03637832046193    -4.76397121413665    -4.73247136936628
H   19   1    -3.24475802163669    -2.37551046050250    -3.28123540501917
N   20   7     3.37923471211299    -5.33493873459111    -3.94755661599306
H   21   1     4.17102617885350    -4.76109883042731    -5.61685374703210
H   22   1     2.26176595533881    -6.82326057413281    -4.47610923358166
H   23   1     4.85383336053810    -6.19899521806112    -3.03922195969837
N   24   7    -5.12827828560868     1.10587339727385     0.60762064836653
H   25   1    -5.15408816501799    -0.81544705836782     0.54662784797006
H   26   1    -5.69743166898356     1.68113626520945    -1.14337690194197
H   27   1    -6.63528195761783     1.56841410187914     1.73267665553083
N   28   7    -1.71226383393328     0.02257088883181     4.99588785277390
H   29   1    -1.62991523860311     0.86667375415253     6.73575491620870
H   30   1    -0.22416876152653    -1.19157625647512     4.98456461383551
H   31   1    -3.28782110056328    -1.08746368536834     5.11339858210385
N   32   7     2.00548696750367     3.82438993637228     3.04035957482536
H   33   1     2.05186651577887     4.68410571893416     4.77402266739321
H   34   1     2.83712330958063     5.12208376337235     1.87805706574587
H   35   1     3.26582090902109     2.38241174030942     3.19051154350492
N   36   7    -1.41052748417173     4.90769055508820    -1.34790762958202
H   37   1    -1.75003190025884     6.78104976168840    -0.99229329828299
H   38   1    -2.65834387984003     4.49309409198925    -2.75785496783350
H   39   1     0.32278033988471     4.89894112313146    -2.18344058692784
N   40   7    -3.37919124841212     5.33499353664873     3.94750181393545
H   41   1    -2.26357064378777     6.83195331430581     4.45515784003860
H   42   1    -4.15358022727151     4.76963661305810     5.62761006813313
H   43   1    -4.86681766873998     6.18449345978121     3.04686590187224
[GTO]
1 0
 s    6 1.00
          51528.086349  0.0017695545768669
          7737.2103487   0.013556436258096
           1760.374847   0.067162645785071
          496.87706544    0.23295905918518
          161.46520598    0.47040576982722
          55.466352268    0.35733072606876
 s    3 1.00
          107.54732999   -0.10605255446629
          12.408671897    0.62543981484169
          5.0423628826    0.44878820793655
 s    3 1.00
          8.5461640165   -0.21819012081133
          1.3900441221    0.70422525667731
         0.56066602876    0.42488555412558
 s    1 1.00
        0.071483705972                   1
 s    1 1.00
        0.028250687604                   1
 p    5 1.00
          640.48536096  0.0093555063746755
          150.69711194   0.068993338492216
          47.503755296     0.2634118959318
          16.934120165    0.51034501651775
           6.240968059    0.33195512953954
 p    3 1.00
          3.0885463206    0.32917682676976
          1.1791047769    0.55491385190365
         0.43369774432    0.23818412855984
 p    1 1.00
              0.120675                   1
 d    4 1.00
          27.559479426   0.036950140313562
          7.4687020327    0.18821519783039
          2.4345903574    0.44641244239929
         0.78244754808     0.5681617303244
 d    1 1.00
         0.21995774311                   1
 f    1 1.00
                 1.147                   1

2 0
 s    6 1.00
          51528.086349  0.0017695545768669
          7737.2103487   0.013556436258096
           1760.374847   0.067162645785071
          496.87706544    0.23295905918518
          161.46520598    0.47040576982722
          55.466352268    0.35733072606876
 s    3 1.00
          107.54732999   -0.10605255446629
          12.408671897    0.62543981484169
          5.0423628826    0.44878820793655
 s    3 1.00
          8.5461640165   -0.21819012081133
          1.3900441221    0.70422525667731
         0.56066602876    0.42488555412558
 s    1 1.00
        0.071483705972                   1
 s    1 1.00
        0.028250687604                   1
 p    5 1.00
          640.48536096  0.0093555063746755
          150.69711194   0.068993338492216
          47.503755296     0.2634118959318
          16.934120165    0.51034501651775
           6.240968059    0.33195512953954
 p    3 1.00
          3.0885463206    0.32917682676976
          1.1791047769    0.55491385190365
         0.43369774432    0.23818412855984
 p    1 1.00
              0.120675                   1
 d    4 1.00
          27.559479426   0.036950140313562
          7.4687020327    0.18821519783039
          2.4345903574    0.44641244239929
         0.78244754808     0.5681617303244
 d    1 1.00
         0.21995774311                   1
 f    1 1.00
                 1.147                   1

3 0
 s    5 1.00
          2266.1767785  -0.0053893503921743
          340.87010191   -0.04023472138896
          77.363135167   -0.18008184205526
           21.47964494   -0.46828857657651
          6.6589433124   -0.44692617160187
 s    1 1.00
         0.80975975668                   1
 s    1 1.00
         0.25530772234                   1
 p    3 1.00
          17.721504317   0.062630248763161
           3.863550544    0.33331138482352
          1.0480920883    0.74148638308122
 p    1 1.00
         0.27641544411                   1
 d    1 1.00
                   1.2                   1

4 0
 s    5 1.00
          1712.8415853  -0.0054477995804909
          257.64812677  -0.040627174632423
          58.458245853   -0.18111962250584
          16.198367905   -0.46843975563173
          5.0052600809   -0.44616846289231
 s    1 1.00
         0.58731856571                   1
 s    1 1.00
         0.18764592253                   1
 p    3 1.00
          13.571470233  -0.058848116969522
          2.9257372874   -0.32024624762471
         0.79927750754   -0.75328226520436
 p    1 1.00
         0.21954348034                   1
 d    1 1.00
                     1                   1

5 0
 s    3 1.00
             13.010701   0.033485484812989
             1.9622572    0.23472187088125
            0.44453796    0.81377028525955
 s    1 1.00
            0.12194962                   1
 p    1 1.00
                   0.8                   1

6 0
 s    3 1.00
             13.010701   0.033485484812989
             1.9622572    0.23472187088125
            0.44453796    0.81377028525955
 s    1 1.00
            0.12194962                   1
 p    1 1.00
                   0.8                   1

7 0
 s    3 1.00
             13.010701   0.033485484812989
             1.9622572    0.23472187088125
            0.44453796    0.81377028525955
 s    1 1.00
            0.12194962                   1
 p    1 1.00
                   0.8                   1

8 0
 s    5 1.00
          1712.8415853  -0.0054477995804909
          257.64812677  -0.040627174632423
          58.458245853   -0.18111962250584
          16.198367905   -0.46843975563173
          5.0052600809   -0.44616846289231
 s    1 1.00
         0.58731856571                   1
 s    1 1.00
         0.18764592253                   1
 p    3 1.00
          13.571470233  -0.058848116969522
          2.9257372874   -0.32024624762471
         0.79927750754   -0.75328226520436
 p    1 1.00
         0.21954348034                   1
 d    1 1.00
                     1                   1

9 0
 s    3 1.00
             13.010701   0.033485484812989
             1.9622572    0.23472187088125
            0.44453796    0.81377028525955
 s    1 1.00
            0.12194962                   1
 p    1 1.00
                   0.8                   1

10 0
 s    3 1.00
             13.010701   0.033485484812989
             1.9622572    0.23472187088125
            0.44453796    0.81377028525955
 s    1 1.00
            0.12194962                   1
 p    1 1.00
                   0.8                   1

11 0
 s    3 1.00
             13.010701   0.033485484812989
             1.9622572    0.23472187088125
            0.44453796    0.81377028525955
 s    1 1.00
            0.12194962                   1
 p    1 1.00
                   0.8                   1

12 0
 s    5 1.00
          1712.8415853  -0.0054477995804909
          257.64812677  -0.040627174632423
          58.458245853   -0.18111962250584
          16.198367905   -0.46843975563173
          5.0052600809   -0.44616846289231
 s    1 1.00
         0.58731856571                   1
 s    1 1.00
         0.18764592253                   1
 p    3 1.00
          13.571470233  -0.058848116969522
          2.9257372874   -0.32024624762471
         0.79927750754   -0.75328226520436
 p    1 1.00
         0.21954348034                   1
 d    1 1.00
                     1                   1

13 0
 s    3 1.00
             13.010701   0.033485484812989
             1.9622572    0.23472187088125
            0.44453796    0.81377028525955
 s    1 1.00
            0.12194962                   1
 p    1 1.00
                   0.8                   1

14 0
 s    3 1.00
             13.010701   0.033485484812989
             1.9622572    0.23472187088125
            0.44453796    0.81377028525955
 s    1 1.00
            0.12194962                   1
 p    1 1.00
                   0.8                   1

15 0
 s    3 1.00
             13.010701   0.033485484812989
             1.9622572    0.23472187088125
            0.44453796    0.81377028525955
 s    1 1.00
            0.12194962                   1
 p    1 1.00
                   0.8                   1

16 0
 s    5 1.00
          1712.8415853  -0.0054477995804909
          257.64812677  -0.040627174632423
          58.458245853   -0.18111962250584
          16.198367905   -0.46843975563173
          5.0052600809   -0.44616846289231
 s    1 1.00
         0.58731856571                   1
 s    1 1.00
         0.18764592253                   1
 p    3 1.00
          13.571470233  -0.058848116969522
          2.9257372874   -0.32024624762471
         0.79927750754   -0.75328226520436
 p    1 1.00
         0.21954348034                   1
 d    1 1.00
                     1                   1

17 0
 s    3 1.00
             13.010701   0.033485484812989
             1.9622572    0.23472187088125
            0.44453796    0.81377028525955
 s    1 1.00
            0.12194962                   1
 p    1 1.00
                   0.8                   1

18 0
 s    3 1.00
             13.010701   0.033485484812989
             1.9622572    0.23472187088125
            0.44453796    0.81377028525955
 s    1 1.00
            0.12194962                   1
 p    1 1.00
                   0.8                   1

19 0
 s    3 1.00
             13.010701   0.033485484812989
             1.9622572    0.23472187088125
            0.44453796    0.81377028525955
 s    1 1.00
            0.12194962                   1
 p    1 1.00
                   0.8                   1

20 0
 s    5 1.00
          1712.8415853  -0.0054477995804909
          257.64812677  -0.040627174632423
          58.458245853   -0.18111962250584
          16.198367905   -0.46843975563173
          5.0052600809   -0.44616846289231
 s    1 1.00
         0.58731856571                   1
 s    1 1.00
         0.18764592253                   1
 p    3 1.00
          13.571470233  -0.058848116969522
          2.9257372874   -0.32024624762471
         0.79927750754   -0.75328226520436
 p    1 1.00
         0.21954348034                   1
 d    1 1.00
                     1                   1

21 0
 s    3 1.00
             13.010701   0.033485484812989
             1.9622572    0.23472187088125
            0.44453796    0.81377028525955
 s    1 1.00
            0.12194962                   1
 p    1 1.00
                   0.8                   1

22 0
 s    3 1.00
             13.010701   0.033485484812989
             1.9622572    0.23472187088125
            0.44453796    0.81377028525955
 s    1 1.00
            0.12194962                   1
 p    1 1.00
                   0.8                   1

23 0
 s    3 1.00
             13.010701   0.033485484812989
             1.9622572    0.23472187088125
            0.44453796    0.81377028525955
 s    1 1.00
            0.12194962                   1
 p    1 1.00
                   0.8                   1

24 0
 s    5 1.00
          1712.8415853  -0.0054477995804909
          257.64812677  -0.040627174632423
          58.458245853   -0.18111962250584
          16.198367905   -0.46843975563173
          5.0052600809   -0.44616846289231
 s    1 1.00
         0.58731856571                   1
 s    1 1.00
         0.18764592253                   1
 p    3 1.00
          13.571470233  -0.058848116969522
          2.9257372874   -0.32024624762471
         0.79927750754   -0.75328226520436
 p    1 1.00
         0.21954348034                   1
 d    1 1.00
                     1                   1

25 0
 s    3 1.00
             13.010701   0.033485484812989
             1.9622572    0.23472187088125
            0.44453796    0.81377028525955
 s    1 1.00
            0.12194962                   1
 p    1 1.00
                   0.8                   1

26 0
 s    3 1.00
             13.010701   0.033485484812989
             1.9622572    0.23472187088125
            0.44453796    0.81377028525955
 s    1 1.00
            0.12194962                   1
 p    1 1.00
                   0.8                   1

27 0
 s    3 1.00
             13.010701   0.033485484812989
             1.9622572    0.23472187088125
            0.44453796    0.81377028525955
 s    1 1.00
            0.12194962                   1
 p    1 1.00
                   0.8                   1

28 0
 s    5 1.00
          1712.8415853  -0.0054477995804909
          257.64812677  -0.040627174632423
          58.458245853   -0.18111962250584
          16.198367905   -0.46843975563173
          5.0052600809   -0.44616846289231
 s    1 1.00
         0.58731856571                   1
 s    1 1.00
         0.18764592253                   1
 p    3 1.00
          13.571470233  -0.058848116969522
          2.9257372874   -0.32024624762471
         0.79927750754   -0.75328226520436
 p    1 1.00
         0.21954348034                   1
 d    1 1.00
                     1                   1

29 0
 s    3 1.00
             13.010701   0.033485484812989
             1.9622572    0.23472187088125
            0.44453796    0.81377028525955
 s    1 1.00
            0.12194962                   1
 p    1 1.00
                   0.8                   1

30 0
 s    3 1.00
             13.010701   0.033485484812989
             1.9622572    0.23472187088125
            0.44453796    0.81377028525955
 s    1 1.00
            0.12194962                   1
 p    1 1.00
                   0.8                   1

31 0
 s    3 1.00
             13.010701   0.033485484812989
             1.9622572    0.23472187088125
            0.44453796    0.81377028525955
 s    1 1.00
            0.12194962                   1
 p    1 1.00
                   0.8                   1

32 0
 s    5 1.00
          1712.8415853  -0.0054477995804909
          257.64812677  -0.040627174632423
          58.458245853   -0.18111962250584
          16.198367905   -0.46843975563173
          5.0052600809   -0.44616846289231
 s    1 1.00
         0.58731856571                   1
 s    1 1.00
         0.18764592253                   1
 p    3 1.00
          13.571470233  -0.058848116969522
          2.9257372874   -0.32024624762471
         0.79927750754   -0.75328226520436
 p    1 1.00
         0.21954348034                   1
 d    1 1.00
                     1                   1

33 0
 s    3 1.00
             13.010701   0.033485484812989
             1.9622572    0.23472187088125
            0.44453796    0.81377028525955
 s    1 1.00
            0.12194962                   1
 p    1 1.00
                   0.8                   1

34 0
 s    3 1.00
             13.010701   0.033485484812989
             1.9622572    0.23472187088125
            0.44453796    0.81377028525955
 s    1 1.00
            0.12194962                   1
 p    1 1.00
                   0.8                   1

35 0
 s    3 1.00
             13.010701   0.033485484812989
             1.9622572    0.23472187088125
            0.44453796    0.81377028525955
 s    1 1.00
            0.12194962                   1
 p    1 1.00
                   0.8                   1

36 0
 s    5 1.00
          1712.8415853  -0.0054477995804909
          257.64812677  -0.040627174632423
          58.458245853   -0.18111962250584
          16.198367905   -0.46843975563173
          5.0052600809   -0.44616846289231
 s    1 1.00
         0.58731856571                   1
 s    1 1.00
         0.18764592253                   1
 p    3 1.00
          13.571470233  -0.058848116969522
          2.9257372874   -0.32024624762471
         0.79927750754   -0.75328226520436
 p    1 1.00
         0.21954348034                   1
 d    1 1.00
                     1                   1

37 0
 s    3 1.00
             13.010701   0.033485484812989
             1.9622572    0.23472187088125
            0.44453796    0.81377028525955
 s    1 1.00
            0.12194962                   1
 p    1 1.00
                   0.8                   1

38 0
 s    3 1.00
             13.010701   0.033485484812989
             1.9622572    0.23472187088125
            0.44453796    0.81377028525955
 s    1 1.00
            0.12194962                   1
 p    1 1.00
                   0.8                   1

39 0
 s    3 1.00
             13.010701   0.033485484812989
             1.9622572    0.23472187088125
            0.44453796    0.81377028525955
 s    1 1.00
            0.12194962                   1
 p    1 1.00
                   0.8                   1

40 0
 s    5 1.00
          1712.8415853  -0.0054477995804909
          257.64812677  -0.040627174632423
          58.458245853   -0.18111962250584
          16.198367905   -0.46843975563173
          5.0052600809   -0.44616846289231
 s    1 1.00
         0.58731856571                   1
 s    1 1.00
         0.18764592253                   1
 p    3 1.00
          13.571470233  -0.058848116969522
          2.9257372874   -0.32024624762471
         0.79927750754   -0.75328226520436
 p    1 1.00
         0.21954348034                   1
 d    1 1.00
                     1                   1

41 0
 s    3 1.00
             13.010701   0.033485484812989
             1.9622572    0.23472187088125
            0.44453796    0.81377028525955
 s    1 1.00
            0.12194962                   1
 p    1 1.00
                   0.8                   1

42 0
 s    3 1.00
             13.010701   0.033485484812989
             1.9622572    0.23472187088125
            0.44453796    0.81377028525955
 s    1 1.00
            0.12194962                   1
 p    1 1.00
                   0.8                   1

43 0
 s    3 1.00
             13.010701   0.033485484812989
             1.9622572    0.23472187088125
            0.44453796    0.81377028525955
 s    1 1.00
            0.12194962                   1
 p    1 1.00
                   0.8                   1

[5d]
[7f]
[9g]

[MO]
 Sym= A
 Ene=               0
 Spin= Alpha
 Occup=    1.00000
   1    5.8980551512614e-05
   2    -0.00011799596340843
   3    0.00099503338906429
   4    -0.000220882738478
   5    0.00023943063607775
   6    0.00017182847734205
   7    2.957198309131e-06
   8    -0.0001677162571981
   9    -0.00054167476693576
  10    6.4417429334991e-06
  11    0.00054217752112122
  12    -9.5674958285681e-05
  13    -0.0003376945638341
  14    -0.00041227073426553
  15     0.095522382625599
  16    -0.060644223692124
  17      -0.1223058215763
  18     -0.10649332650482
  19    -0.055617376736241
  20     0.069747863388923
  21    -0.044702714783843
  22    -0.088776253872664
  23    -0.077487323417769
  24    -0.041004223251831
  25    -0.00046373424130608
  26    0.00044260706638272
  27    0.00015059465507038
  28    -0.00025155598815647
  29    0.00012935905756725
  30    -0.00061790152333587
  31    0.00031680350337963
  32    -6.8655885979166e-05
  33    0.00014084459261582
  34    -0.0011600706458092
  35    0.00068360809777932
  36    -0.00015270762231251
  37    5.1641559378033e-05
  38    -0.00011729054099946
  39    -7.0029321511227e-05
  40    -0.00017979096386522
  41    0.00040722765295376
  42    0.00024357161191801
  43    3.4839786133142e-05
  44    -0.00052790725290408
  45    -0.00010775620483695
  46    -0.0003721042609445
  47    -0.00035683636598682
  48     0.001227772315556
  49    -0.00019876977635078
  50    -0.00060575043060055
  51    -0.00085936258442462
  52    0.00049911587696197
  53     0.001153261418653
  54    0.00064504056061182
  55    0.00032140576487648
  56    3.1693185836432e-05
  57    2.2455249955847e-05
  58    -1.2500098824767e-05
  59    2.9516501625993e-05
  60    6.9412850280859e-05
  61    -7.3870557064743e-05
  62    1.1728363540073e-05
  63    -0.0007391688961972
  64    -0.0019390139435464
  65    -0.0011192847834057
  66    -0.0030624901115954
  67    0.0032874024820954
  68    0.0032046995574231
  69    -0.0026102417946542
  70    0.0030567506579822
  71    0.0026654928242778
  72    0.00039697922971275
  73    -0.00023893840988564
  74    -0.00053439586667887
  75    -0.00042235420272761
  76    -0.00021129302245215
  77    -0.060245673851388
  78     -0.15261970623947
  79      -0.1313891124998
  80     -0.21086749211878
  81    -0.085605959569999
  82    -0.071458564085726
  83      0.14725184027101
  84      0.06511196171394
  85     0.051422757586701
  86    0.00023709509624784
  87    -0.00027036333948938
  88    -0.00045991156660855
  89    -0.00012804547517398
  90    -0.00020629612874902
  91     0.025174400050708
  92     0.015836183790132
  93    0.0039778996268521
  94    0.0040793045272002
  95    0.0044583857577498
  96     0.024761980475731
  97      0.01898176197441
  98    0.0061896328624137
  99    0.0031693290684194
 100    -0.00089696785746234
 101     0.017096055658782
 102      0.01925453052585
 103    0.0071730006753137
 104    0.00035333588093014
 105    0.0018618253213162
 106     0.060463432444693
 107      0.15321033703339
 108      0.13268249773669
 109    0.0040703059570009
 110      0.15022778172758
 111     -0.18784260863253
 112    0.00081239677524659
 113     -0.11064543961423
 114       0.1308766445567
 115    0.00012644146294543
 116    -0.00014379654804408
 117    -0.00045290471891444
 118    -0.00040157671652754
 119    -0.00032192696410022
 120    -0.014864403857318
 121    -0.020385277709013
 122    -0.0016350686541073
 123    -0.0031339237402444
 124    0.0066629378137258
 125    -0.026140518225635
 126    -0.016270758419544
 127    -0.00043862225379249
 128    -0.0065431547604592
 129    0.0027004742510167
 130    -0.025432649242021
 131    -0.017206556397659
 132    0.0024895090769191
 133    -0.0027916442673578
 134    0.0058465166369508
 135     0.060834887131491
 136       0.1544180345276
 137      0.13279632132378
 138    -0.013284233585533
 139     -0.14534894866956
 140       0.1911200198246
 141      0.01311199178969
 142      0.10038709003705
 143     -0.13711454335863
 144     0.000454841801451
 145    -0.00027849345120492
 146    -0.00027071751471044
 147    -0.00015661421107145
 148    -0.00015227010155034
 149    -0.025159770941646
 150    -0.015849377117195
 151    0.0010055302702548
 152    0.0011001071374033
 153    -0.0071314499669538
 154    -0.017451414720316
 155    -0.019579501319484
 156    -0.0015990762031542
 157    0.0054395732969349
 158    -0.0048634861721667
 159    -0.024472501442123
 160    -0.019141668540467
 161     0.002306996160777
 162    0.0055939808547269
 163    -0.0036689570839536
 164    -0.059936071881565
 165     -0.15158453256701
 166     -0.13139150910904
 167      0.21447853953926
 168      0.07564095229746
 169     0.071577660249013
 170     -0.15502125059409
 171    -0.049176969637218
 172    -0.049014750303169
 173    0.00039995263191863
 174    -0.00016580156324283
 175    -0.00030572615501143
 176    -0.00042214035295503
 177    -3.0152790273725e-05
 178     0.024635499789895
 179     0.017429707866001
 180    -0.0052401108175725
 181    -0.00074254794433963
 182    -0.0044572382942684
 183     0.026000338902753
 184     0.016068498224727
 185    -0.0070267911658585
 186    -0.000486322510281
 187    0.00099942114306514
 188     0.015997754706414
 189     0.019461969850336
 190    -0.0054287244211758
 191    -0.0043259462179855
 192    -0.0026384508039234
 193    -0.00029707641857682
 194    -0.00061952988743308
 195    -0.00042742757847866
 196    -0.00026159262305489
 197    0.0013267315134245
 198    0.00042229722137765
 199    -0.0014125617424696
 200    -0.0027408252047056
 201     0.001007091150561
 202    0.00040574749194356
 203    -0.00025195938372197
 204    -0.00053427230277761
 205    -0.00047310253870295
 206    -0.00023732953149193
 207    0.0023882445857287
 208    0.0012130277012294
 209    -0.00049609509400642
 210    0.00067824105395083
 211    -0.00010115014279733
 212    -0.0017469849801854
 213    -0.0010179627445561
 214    0.00075482940126872
 215    -0.00046576371612412
 216    5.8411268344999e-05
 217    -3.5325492362889e-06
 218    -0.00011245083503924
 219    -0.00050835249891897
 220    -0.00060918198620832
 221    0.00020916666123917
 222    -0.00018330455014116
 223    0.0001525653646216
 224    -0.0027407132050069
 225    -0.00060362091455572
 226    -0.0010172989043379
 227    -0.00071627214952528
 228    -0.0015604167427986
 229    0.0018367873501139
 230    0.0013453099898344
 231    1.775082555907e-05
 232    -0.00010274034792591
 233    3.287987582788e-05
 234    0.00012779090613174
 235    -5.8073375910714e-05
 236    -0.00024374780428312
 237    0.00075786285986291
 238    -5.9902978571619e-05
 239    4.9944881098361e-05
 240    -7.6727038877772e-05
 241    -0.00017226401370537
 242    -1.5406706755273e-05
 243    0.00018114972238235
 244    -7.7652040403527e-05
 245    -8.3458742378532e-05
 246    -0.00019898234293149
 247    -0.00046688850277542
 248    -6.792742019882e-05
 249    3.035419300443e-05
 250    0.00016193398895093
 251    0.00018848200156458
 252    -0.00025955022069948
 253     0.001743031017522
 254    -0.0004908113037823
 255    0.00096636125938089
 256    -3.1884053318668e-05
 257    0.00089902345048846
 258    -0.0013502610789503
 259    -0.001803728983471
 260    -7.6335064266006e-05
 261    4.2854416387705e-06
 262    -7.1796484876913e-05
 263    2.8295485325816e-05
 264    -4.0849847774586e-05
 265    0.00011670262533356
 266    0.00030263402543546
 267    -6.2946199154799e-05
 268    -0.00010675094937698
 269    -5.4635979041779e-05
 270    0.00010956374317361
 271    6.3764488046363e-05
 272    8.3231287848156e-05
 273    9.493961842014e-05
 274    -0.00019958830249128
 275    -8.238835054552e-05
 276    -9.7007948966114e-05
 277    -4.8022128670348e-05
 278    6.4400510969075e-05
 279    0.00018447580680769
 280    -0.00015970055822139
 281    5.6881685112638e-05
 282    -0.0018107612029092
 283    0.0013583966883675
 284    -0.00031562983506419
 285    -3.5104631013109e-05
 286    -0.00073735383328025
 287    0.0017000744524327
 288    0.0015024299616146
 289    9.8782682612769e-05
 290    -6.3289388264881e-06
 291    9.5903165860905e-05
 292    -3.6847048652664e-05
 293    5.2595453016984e-05
 294    -0.00028188964190371
 295    -0.00033116545705845
 296    -6.4772694430335e-05
 297    4.0818919620556e-06
 298    0.00015702893204748
 299    -0.0001500670105532
 300    5.8713869280481e-05
 301    -2.3164155257997e-05
 302    -0.00011896948534228
 303    -0.00017275414091854
 304    -0.00032331795363281
 305    -0.00015859920946417
 306    0.00013017889712592
 307    0.00010451635138937
 308    4.6661019768021e-05
 309    0.00024196807046896
 310    -0.00033610381224965
 311    0.0028560727885172
 312    -0.00042125051235782
 313    0.00025228114156492
 314    0.00098617555337852
 315    0.0013114077763706
 316    -0.002521764785162
 317    -0.0010614456439645
 318    3.2414322529816e-05
 319    -5.5390442980718e-06
 320    -3.5064066537957e-05
 321    0.00014267614394796
 322    4.391019766088e-05
 323    1.7755025417374e-05
 324    0.00049858199618384
 325    -7.4064388862922e-06
 326    -0.00011647101052747
 327    -9.8680635750418e-05
 328    -3.2766825138217e-05
 329    2.3829587005186e-05
 330    -0.00011507376683183
 331    0.0001753549823546
 332    7.4708155519407e-06
 333    -4.4577830237646e-05
 334    -0.00075681980467795
 335    9.9444557768894e-05
 336    4.5264374238642e-05
 337    6.6728533440634e-05
 338    -0.00033714382777551
 339    -0.00093506034653633