[Molden Format]
made by pyscf v[2.1.1]
[Atoms] (AU)
Cr   1   24     1.56143912275337    -2.46507591990239    -1.82404491365355
Cr   2   24    -1.56139565905251     2.46513072196000     1.82399011159594
O   3   8     0.00002078698737     0.00002834589187    -0.00002645616574
N   4   7     5.12832174930954    -1.10581670549011    -0.60767356069801
H   5   1     6.65216855026694    -1.66292686427314    -1.66487895135981
H   6   1     5.63710405218294    -1.59213394419468     1.18765885421890
H   7   1     5.20084187906585     0.81566059741989    -0.65509245834172
N   8   7     1.71230729763415    -0.02251608677419    -4.99594076510539
H   9   1     0.29795878723855     1.27247165241550    -4.90823668593820
H   10   1     1.50271021425414    -0.85583806455427    -6.73026148236459
H   11   1     3.34039895052705     0.99863710888315    -5.18656310846864
N   12   7     1.41057094787259    -4.90763575303059     1.34785282752440
H   13   1     1.64193389675534    -6.79355407945465     0.97314659318890
H   14   1    -0.29048681014202    -4.81040367474334     2.24006056107205
H   15   1     2.72468082571676    -4.56691435331926     2.71738081369757
N   16   7    -2.00544350380280    -3.82433513431467    -3.04041437688297
H   17   1    -2.87205678671934    -5.05516478184926    -1.83221042023780
H   18   1    -2.03637832046193    -4.76397121413665    -4.73247136936628
H   19   1    -3.24475802163669    -2.37551046050250    -3.28123540501917
N   20   7     3.37923471211299    -5.33493873459111    -3.94755661599306
H   21   1     4.17102617885350    -4.76109883042731    -5.61685374703210
H   22   1     2.26176595533881    -6.82326057413281    -4.47610923358166
H   23   1     4.85383336053810    -6.19899521806112    -3.03922195969837
N   24   7    -5.12827828560868     1.10587339727385     0.60762064836653
H   25   1    -5.15408816501799    -0.81544705836782     0.54662784797006
H   26   1    -5.69743166898356     1.68113626520945    -1.14337690194197
H   27   1    -6.63528195761783     1.56841410187914     1.73267665553083
N   28   7    -1.71226383393328     0.02257088883181     4.99588785277390
H   29   1    -1.62991523860311     0.86667375415253     6.73575491620870
H   30   1    -0.22416876152653    -1.19157625647512     4.98456461383551
H   31   1    -3.28782110056328    -1.08746368536834     5.11339858210385
N   32   7     2.00548696750367     3.82438993637228     3.04035957482536
H   33   1     2.05186651577887     4.68410571893416     4.77402266739321
H   34   1     2.83712330958063     5.12208376337235     1.87805706574587
H   35   1     3.26582090902109     2.38241174030942     3.19051154350492
N   36   7    -1.41052748417173     4.90769055508820    -1.34790762958202
H   37   1    -1.75003190025884     6.78104976168840    -0.99229329828299
H   38   1    -2.65834387984003     4.49309409198925    -2.75785496783350
H   39   1     0.32278033988471     4.89894112313146    -2.18344058692784
N   40   7    -3.37919124841212     5.33499353664873     3.94750181393545
H   41   1    -2.26357064378777     6.83195331430581     4.45515784003860
H   42   1    -4.15358022727151     4.76963661305810     5.62761006813313
H   43   1    -4.86681766873998     6.18449345978121     3.04686590187224
[GTO]
1 0
 s    6 1.00
          51528.086349  0.0017695545768669
          7737.2103487   0.013556436258096
           1760.374847   0.067162645785071
          496.87706544    0.23295905918518
          161.46520598    0.47040576982722
          55.466352268    0.35733072606876
 s    3 1.00
          107.54732999   -0.10605255446629
          12.408671897    0.62543981484169
          5.0423628826    0.44878820793655
 s    3 1.00
          8.5461640165   -0.21819012081133
          1.3900441221    0.70422525667731
         0.56066602876    0.42488555412558
 s    1 1.00
        0.071483705972                   1
 s    1 1.00
        0.028250687604                   1
 p    5 1.00
          640.48536096  0.0093555063746755
          150.69711194   0.068993338492216
          47.503755296     0.2634118959318
          16.934120165    0.51034501651775
           6.240968059    0.33195512953954
 p    3 1.00
          3.0885463206    0.32917682676976
          1.1791047769    0.55491385190365
         0.43369774432    0.23818412855984
 p    1 1.00
              0.120675                   1
 d    4 1.00
          27.559479426   0.036950140313562
          7.4687020327    0.18821519783039
          2.4345903574    0.44641244239929
         0.78244754808     0.5681617303244
 d    1 1.00
         0.21995774311                   1
 f    1 1.00
                 1.147                   1

2 0
 s    6 1.00
          51528.086349  0.0017695545768669
          7737.2103487   0.013556436258096
           1760.374847   0.067162645785071
          496.87706544    0.23295905918518
          161.46520598    0.47040576982722
          55.466352268    0.35733072606876
 s    3 1.00
          107.54732999   -0.10605255446629
          12.408671897    0.62543981484169
          5.0423628826    0.44878820793655
 s    3 1.00
          8.5461640165   -0.21819012081133
          1.3900441221    0.70422525667731
         0.56066602876    0.42488555412558
 s    1 1.00
        0.071483705972                   1
 s    1 1.00
        0.028250687604                   1
 p    5 1.00
          640.48536096  0.0093555063746755
          150.69711194   0.068993338492216
          47.503755296     0.2634118959318
          16.934120165    0.51034501651775
           6.240968059    0.33195512953954
 p    3 1.00
          3.0885463206    0.32917682676976
          1.1791047769    0.55491385190365
         0.43369774432    0.23818412855984
 p    1 1.00
              0.120675                   1
 d    4 1.00
          27.559479426   0.036950140313562
          7.4687020327    0.18821519783039
          2.4345903574    0.44641244239929
         0.78244754808     0.5681617303244
 d    1 1.00
         0.21995774311                   1
 f    1 1.00
                 1.147                   1

3 0
 s    5 1.00
          2266.1767785  -0.0053893503921743
          340.87010191   -0.04023472138896
          77.363135167   -0.18008184205526
           21.47964494   -0.46828857657651
          6.6589433124   -0.44692617160187
 s    1 1.00
         0.80975975668                   1
 s    1 1.00
         0.25530772234                   1
 p    3 1.00
          17.721504317   0.062630248763161
           3.863550544    0.33331138482352
          1.0480920883    0.74148638308122
 p    1 1.00
         0.27641544411                   1
 d    1 1.00
                   1.2                   1

4 0
 s    5 1.00
          1712.8415853  -0.0054477995804909
          257.64812677  -0.040627174632423
          58.458245853   -0.18111962250584
          16.198367905   -0.46843975563173
          5.0052600809   -0.44616846289231
 s    1 1.00
         0.58731856571                   1
 s    1 1.00
         0.18764592253                   1
 p    3 1.00
          13.571470233  -0.058848116969522
          2.9257372874   -0.32024624762471
         0.79927750754   -0.75328226520436
 p    1 1.00
         0.21954348034                   1
 d    1 1.00
                     1                   1

5 0
 s    3 1.00
             13.010701   0.033485484812989
             1.9622572    0.23472187088125
            0.44453796    0.81377028525955
 s    1 1.00
            0.12194962                   1
 p    1 1.00
                   0.8                   1

6 0
 s    3 1.00
             13.010701   0.033485484812989
             1.9622572    0.23472187088125
            0.44453796    0.81377028525955
 s    1 1.00
            0.12194962                   1
 p    1 1.00
                   0.8                   1

7 0
 s    3 1.00
             13.010701   0.033485484812989
             1.9622572    0.23472187088125
            0.44453796    0.81377028525955
 s    1 1.00
            0.12194962                   1
 p    1 1.00
                   0.8                   1

8 0
 s    5 1.00
          1712.8415853  -0.0054477995804909
          257.64812677  -0.040627174632423
          58.458245853   -0.18111962250584
          16.198367905   -0.46843975563173
          5.0052600809   -0.44616846289231
 s    1 1.00
         0.58731856571                   1
 s    1 1.00
         0.18764592253                   1
 p    3 1.00
          13.571470233  -0.058848116969522
          2.9257372874   -0.32024624762471
         0.79927750754   -0.75328226520436
 p    1 1.00
         0.21954348034                   1
 d    1 1.00
                     1                   1

9 0
 s    3 1.00
             13.010701   0.033485484812989
             1.9622572    0.23472187088125
            0.44453796    0.81377028525955
 s    1 1.00
            0.12194962                   1
 p    1 1.00
                   0.8                   1

10 0
 s    3 1.00
             13.010701   0.033485484812989
             1.9622572    0.23472187088125
            0.44453796    0.81377028525955
 s    1 1.00
            0.12194962                   1
 p    1 1.00
                   0.8                   1

11 0
 s    3 1.00
             13.010701   0.033485484812989
             1.9622572    0.23472187088125
            0.44453796    0.81377028525955
 s    1 1.00
            0.12194962                   1
 p    1 1.00
                   0.8                   1

12 0
 s    5 1.00
          1712.8415853  -0.0054477995804909
          257.64812677  -0.040627174632423
          58.458245853   -0.18111962250584
          16.198367905   -0.46843975563173
          5.0052600809   -0.44616846289231
 s    1 1.00
         0.58731856571                   1
 s    1 1.00
         0.18764592253                   1
 p    3 1.00
          13.571470233  -0.058848116969522
          2.9257372874   -0.32024624762471
         0.79927750754   -0.75328226520436
 p    1 1.00
         0.21954348034                   1
 d    1 1.00
                     1                   1

13 0
 s    3 1.00
             13.010701   0.033485484812989
             1.9622572    0.23472187088125
            0.44453796    0.81377028525955
 s    1 1.00
            0.12194962                   1
 p    1 1.00
                   0.8                   1

14 0
 s    3 1.00
             13.010701   0.033485484812989
             1.9622572    0.23472187088125
            0.44453796    0.81377028525955
 s    1 1.00
            0.12194962                   1
 p    1 1.00
                   0.8                   1

15 0
 s    3 1.00
             13.010701   0.033485484812989
             1.9622572    0.23472187088125
            0.44453796    0.81377028525955
 s    1 1.00
            0.12194962                   1
 p    1 1.00
                   0.8                   1

16 0
 s    5 1.00
          1712.8415853  -0.0054477995804909
          257.64812677  -0.040627174632423
          58.458245853   -0.18111962250584
          16.198367905   -0.46843975563173
          5.0052600809   -0.44616846289231
 s    1 1.00
         0.58731856571                   1
 s    1 1.00
         0.18764592253                   1
 p    3 1.00
          13.571470233  -0.058848116969522
          2.9257372874   -0.32024624762471
         0.79927750754   -0.75328226520436
 p    1 1.00
         0.21954348034                   1
 d    1 1.00
                     1                   1

17 0
 s    3 1.00
             13.010701   0.033485484812989
             1.9622572    0.23472187088125
            0.44453796    0.81377028525955
 s    1 1.00
            0.12194962                   1
 p    1 1.00
                   0.8                   1

18 0
 s    3 1.00
             13.010701   0.033485484812989
             1.9622572    0.23472187088125
            0.44453796    0.81377028525955
 s    1 1.00
            0.12194962                   1
 p    1 1.00
                   0.8                   1

19 0
 s    3 1.00
             13.010701   0.033485484812989
             1.9622572    0.23472187088125
            0.44453796    0.81377028525955
 s    1 1.00
            0.12194962                   1
 p    1 1.00
                   0.8                   1

20 0
 s    5 1.00
          1712.8415853  -0.0054477995804909
          257.64812677  -0.040627174632423
          58.458245853   -0.18111962250584
          16.198367905   -0.46843975563173
          5.0052600809   -0.44616846289231
 s    1 1.00
         0.58731856571                   1
 s    1 1.00
         0.18764592253                   1
 p    3 1.00
          13.571470233  -0.058848116969522
          2.9257372874   -0.32024624762471
         0.79927750754   -0.75328226520436
 p    1 1.00
         0.21954348034                   1
 d    1 1.00
                     1                   1

21 0
 s    3 1.00
             13.010701   0.033485484812989
             1.9622572    0.23472187088125
            0.44453796    0.81377028525955
 s    1 1.00
            0.12194962                   1
 p    1 1.00
                   0.8                   1

22 0
 s    3 1.00
             13.010701   0.033485484812989
             1.9622572    0.23472187088125
            0.44453796    0.81377028525955
 s    1 1.00
            0.12194962                   1
 p    1 1.00
                   0.8                   1

23 0
 s    3 1.00
             13.010701   0.033485484812989
             1.9622572    0.23472187088125
            0.44453796    0.81377028525955
 s    1 1.00
            0.12194962                   1
 p    1 1.00
                   0.8                   1

24 0
 s    5 1.00
          1712.8415853  -0.0054477995804909
          257.64812677  -0.040627174632423
          58.458245853   -0.18111962250584
          16.198367905   -0.46843975563173
          5.0052600809   -0.44616846289231
 s    1 1.00
         0.58731856571                   1
 s    1 1.00
         0.18764592253                   1
 p    3 1.00
          13.571470233  -0.058848116969522
          2.9257372874   -0.32024624762471
         0.79927750754   -0.75328226520436
 p    1 1.00
         0.21954348034                   1
 d    1 1.00
                     1                   1

25 0
 s    3 1.00
             13.010701   0.033485484812989
             1.9622572    0.23472187088125
            0.44453796    0.81377028525955
 s    1 1.00
            0.12194962                   1
 p    1 1.00
                   0.8                   1

26 0
 s    3 1.00
             13.010701   0.033485484812989
             1.9622572    0.23472187088125
            0.44453796    0.81377028525955
 s    1 1.00
            0.12194962                   1
 p    1 1.00
                   0.8                   1

27 0
 s    3 1.00
             13.010701   0.033485484812989
             1.9622572    0.23472187088125
            0.44453796    0.81377028525955
 s    1 1.00
            0.12194962                   1
 p    1 1.00
                   0.8                   1

28 0
 s    5 1.00
          1712.8415853  -0.0054477995804909
          257.64812677  -0.040627174632423
          58.458245853   -0.18111962250584
          16.198367905   -0.46843975563173
          5.0052600809   -0.44616846289231
 s    1 1.00
         0.58731856571                   1
 s    1 1.00
         0.18764592253                   1
 p    3 1.00
          13.571470233  -0.058848116969522
          2.9257372874   -0.32024624762471
         0.79927750754   -0.75328226520436
 p    1 1.00
         0.21954348034                   1
 d    1 1.00
                     1                   1

29 0
 s    3 1.00
             13.010701   0.033485484812989
             1.9622572    0.23472187088125
            0.44453796    0.81377028525955
 s    1 1.00
            0.12194962                   1
 p    1 1.00
                   0.8                   1

30 0
 s    3 1.00
             13.010701   0.033485484812989
             1.9622572    0.23472187088125
            0.44453796    0.81377028525955
 s    1 1.00
            0.12194962                   1
 p    1 1.00
                   0.8                   1

31 0
 s    3 1.00
             13.010701   0.033485484812989
             1.9622572    0.23472187088125
            0.44453796    0.81377028525955
 s    1 1.00
            0.12194962                   1
 p    1 1.00
                   0.8                   1

32 0
 s    5 1.00
          1712.8415853  -0.0054477995804909
          257.64812677  -0.040627174632423
          58.458245853   -0.18111962250584
          16.198367905   -0.46843975563173
          5.0052600809   -0.44616846289231
 s    1 1.00
         0.58731856571                   1
 s    1 1.00
         0.18764592253                   1
 p    3 1.00
          13.571470233  -0.058848116969522
          2.9257372874   -0.32024624762471
         0.79927750754   -0.75328226520436
 p    1 1.00
         0.21954348034                   1
 d    1 1.00
                     1                   1

33 0
 s    3 1.00
             13.010701   0.033485484812989
             1.9622572    0.23472187088125
            0.44453796    0.81377028525955
 s    1 1.00
            0.12194962                   1
 p    1 1.00
                   0.8                   1

34 0
 s    3 1.00
             13.010701   0.033485484812989
             1.9622572    0.23472187088125
            0.44453796    0.81377028525955
 s    1 1.00
            0.12194962                   1
 p    1 1.00
                   0.8                   1

35 0
 s    3 1.00
             13.010701   0.033485484812989
             1.9622572    0.23472187088125
            0.44453796    0.81377028525955
 s    1 1.00
            0.12194962                   1
 p    1 1.00
                   0.8                   1

36 0
 s    5 1.00
          1712.8415853  -0.0054477995804909
          257.64812677  -0.040627174632423
          58.458245853   -0.18111962250584
          16.198367905   -0.46843975563173
          5.0052600809   -0.44616846289231
 s    1 1.00
         0.58731856571                   1
 s    1 1.00
         0.18764592253                   1
 p    3 1.00
          13.571470233  -0.058848116969522
          2.9257372874   -0.32024624762471
         0.79927750754   -0.75328226520436
 p    1 1.00
         0.21954348034                   1
 d    1 1.00
                     1                   1

37 0
 s    3 1.00
             13.010701   0.033485484812989
             1.9622572    0.23472187088125
            0.44453796    0.81377028525955
 s    1 1.00
            0.12194962                   1
 p    1 1.00
                   0.8                   1

38 0
 s    3 1.00
             13.010701   0.033485484812989
             1.9622572    0.23472187088125
            0.44453796    0.81377028525955
 s    1 1.00
            0.12194962                   1
 p    1 1.00
                   0.8                   1

39 0
 s    3 1.00
             13.010701   0.033485484812989
             1.9622572    0.23472187088125
            0.44453796    0.81377028525955
 s    1 1.00
            0.12194962                   1
 p    1 1.00
                   0.8                   1

40 0
 s    5 1.00
          1712.8415853  -0.0054477995804909
          257.64812677  -0.040627174632423
          58.458245853   -0.18111962250584
          16.198367905   -0.46843975563173
          5.0052600809   -0.44616846289231
 s    1 1.00
         0.58731856571                   1
 s    1 1.00
         0.18764592253                   1
 p    3 1.00
          13.571470233  -0.058848116969522
          2.9257372874   -0.32024624762471
         0.79927750754   -0.75328226520436
 p    1 1.00
         0.21954348034                   1
 d    1 1.00
                     1                   1

41 0
 s    3 1.00
             13.010701   0.033485484812989
             1.9622572    0.23472187088125
            0.44453796    0.81377028525955
 s    1 1.00
            0.12194962                   1
 p    1 1.00
                   0.8                   1

42 0
 s    3 1.00
             13.010701   0.033485484812989
             1.9622572    0.23472187088125
            0.44453796    0.81377028525955
 s    1 1.00
            0.12194962                   1
 p    1 1.00
                   0.8                   1

43 0
 s    3 1.00
             13.010701   0.033485484812989
             1.9622572    0.23472187088125
            0.44453796    0.81377028525955
 s    1 1.00
            0.12194962                   1
 p    1 1.00
                   0.8                   1

[5d]
[7f]
[9g]

[MO]
 Sym= A
 Ene=               0
 Spin= Alpha
 Occup=    1.00000
   1    0.00014549097280607
   2    -0.00016827068645647
   3    0.0037296559942182
   4    -0.011643028773573
   5    -0.0020243027617133
   6    -0.00052465524929229
   7    0.00082849815650884
   8    0.00064081489993666
   9    0.00070925536613754
  10    -0.0011234422862569
  11    -0.0009275895810688
  12    0.0029697031370279
  13    -0.0045592670820452
  14    -0.0029141456453332
  15    -0.009629857998271
  16    -0.054434479843012
  17      0.08456496231009
  18    -0.035200171792551
  19    -0.073239362626663
  20    -0.0077305232246111
  21    -0.042795506393177
  22     0.066613772757895
  23    -0.027724343050304
  24    -0.057844617223259
  25    -0.00019164695968791
  26    -5.5603371308788e-05
  27    5.0586218248567e-05
  28    -0.00014230023758607
  29    -0.00027502113477959
  30    0.00021063670581723
  31    5.1065358404624e-05
  32    0.00014664295407135
  33    -0.00016696855801844
  34    0.0037612762507224
  35    -0.011583440340457
  36    -0.0020519878083898
  37    0.00052358900003096
  38    -0.00082941706565917
  39    -0.00064121939196609
  40    -0.00070648025418791
  41    0.0011257120528246
  42    0.00092934999260488
  43    -0.0029726532605022
  44    0.0046067031006229
  45    0.0029136208140988
  46    -0.010858729998588
  47    -0.053635874954221
  48     0.086118287413602
  49    -0.033778487439689
  50     -0.07249729820342
  51    -0.0086233126640949
  52    -0.042204254939121
  53      0.06775709822769
  54    -0.026677490330147
  55     -0.05728982149582
  56    0.00018565891168155
  57    5.9326009394001e-05
  58    -4.708240091984e-05
  59    0.0001414650706612
  60    0.00027491640222404
  61    -0.00021674561216383
  62    -4.5625354971374e-05
  63      0.12339911352056
  64      0.31871968069204
  65      0.20070824327557
  66    -1.1382223560636e-05
  67    -4.6723478871759e-06
  68    3.5716617437952e-06
  69    -2.1385610080459e-05
  70    -5.2352564186195e-06
  71    1.873162130579e-05
  72    -0.00067472410369759
  73    -0.0036693283440923
  74     0.005807821913454
  75    -0.0023479317748916
  76    -0.0049641816966662
  77    -0.025650948946301
  78    -0.065806169911253
  79    -0.054707706473359
  80    -0.089719972238005
  81    -0.035978451910766
  82    -0.030095187561899
  83     0.062869166431723
  84     0.026451488374572
  85     0.022651602914169
  86    -5.457135751039e-06
  87    -0.00014774595484036
  88    0.00045367270031049
  89    -0.00028386806631679
  90    -0.00011305903348724
  91     0.010697046696436
  92    0.0072416832469174
  93    0.0013801037640915
  94    0.0011438905382358
  95    0.0016505927682701
  96     0.008564864531084
  97     0.006688700440422
  98    0.0030292567863059
  99    0.0020393459189308
 100    -0.00027435752114542
 101    0.0078402193577495
 102    0.0079459824147632
 103    0.0030885972758211
 104    0.00037468710584789
 105    0.0016262181045065
 106    -0.024913556528484
 107    -0.063850283071004
 108    -0.053448213136421
 109    -0.0020129184797637
 110    -0.061459600514403
 111     0.077609994411483
 112    0.0019128758071935
 113       0.0441972603271
 114    -0.054465303598164
 115    -0.00022747229397259
 116    -7.7993985907819e-05
 117    0.00026853323663081
 118    -0.00027862177346636
 119    -0.00042849889255856
 120    0.0081391481079361
 121     0.008808941560632
 122    0.00084024976541591
 123    0.0019902440751514
 124    -0.0025192451432728
 125    0.0099975404850718
 126     0.006917604644468
 127    0.00057053854733475
 128    0.0023668203975951
 129    -0.001027370820105
 130    0.0082245930244707
 131    0.0066077401009694
 132    -0.0013805769667557
 133    0.0014914551368517
 134    -0.0028307896490448
 135    -0.024906504262353
 136    -0.063895154577329
 137    -0.053155556642624
 138    0.0051558047199538
 139     0.059727083072383
 140    -0.077808456142281
 141    -0.0038603559155799
 142    -0.041030300359391
 143     0.056305708178018
 144    0.00015530386756854
 145    -0.00035762950968784
 146    0.00035979795006332
 147    -4.8267226684163e-05
 148    -0.00020846002152621
 149     0.010356546836303
 150    0.0071070889719457
 151    -5.2652516244989e-05
 152    -0.00032246356577747
 153    0.0023081139915454
 154    0.0077852108446026
 155    0.0076382052301214
 156    0.00084055686046568
 157    -0.0018621586425353
 158     0.002745475699741
 159    0.0081355621263353
 160     0.006397211304767
 161    -0.0014502508647832
 162    -0.0025223353613713
 163    0.0020788150896902
 164    -0.025691116867333
 165    -0.065897917587103
 166    -0.054829443090389
 167     0.091484091182712
 168      0.03273595294273
 169     0.030810740269207
 170     -0.06541812269141
 171    -0.022785412844919
 172    -0.020602868320497
 173    -0.0001073669858784
 174    -0.00026749094622555
 175    0.00026096744148729
 176    6.1915542742972e-05
 177    -0.0004616596352489
 178    0.0083471108497442
 179      0.00687559030715
 180    -0.0028788576708048
 181    -9.515943202358e-05
 182    -0.002215289976479
 183     0.010683773553755
 184    0.0072779054177244
 185    -0.0024789182297464
 186    -0.00050117182824007
 187    0.00050885326264917
 188    0.0081134811490303
 189    0.0083852667962575
 190    -0.0028881995031576
 191    -0.0018605687779908
 192    -0.00050484987133435
 193     0.049862249710728
 194      0.12399624027442
 195      0.11096436093316
 196     0.090765539871175
 197     -0.14210537387278
 198     -0.10437991446117
 199    -0.065609542995857
 200      0.10233337041132
 201     0.074992811646523
 202    2.0590970733756e-05
 203    -7.8340307301598e-05
 204    0.0001707282153097
 205    -6.7531782512583e-05
 206    -0.00013432019041351
 207    -0.021184100876647
 208    -0.012565130685163
 209    -0.0017445709701939
 210    0.0055461989188606
 211    0.00078374219244916
 212    -0.021475571374293
 213    -0.012707845368995
 214    -0.0047452480052326
 215     0.002293445824039
 216     0.002556745972229
 217    -0.020313820382472
 218    -0.012503906241056
 219    -0.00075348458740648
 220    0.0033214973440821
 221    0.0047325262817942
 222    -0.024823930336898
 223     -0.06364951782235
 224    -0.053081532117134
 225     0.086823005024635
 226     0.034967574994102
 227     0.029080642270084
 228    -0.060930953988182
 229    -0.025451502918465
 230    -0.021849206233124
 231    -1.3575947950533e-05
 232    -0.00014631291048686
 233    0.00045832672816713
 234    -0.00029289124676469
 235    -0.00010584517075836
 236    0.0077251155245369
 237    0.0079435387446948
 238    -0.0029890848567405
 239    -0.00039399100563602
 240    -0.0015403578244796
 241    0.0083406465378293
 242    0.0064619295968414
 243    -0.0028943503185288
 244    -0.0020430480140219
 245    0.00028525733880984
 246     0.010199852598153
 247    0.0069796225657078
 248    -0.0013802135559647
 249    -0.0010082678710774
 250    -0.0016654033509952
 251    -0.025737303062753
 252    -0.065967396483606
 253    -0.055061059719837
 254    0.0020937193012203
 255      0.06334762541402
 256    -0.080196239500709
 257    -0.001816681083055
 258    -0.045813044291617
 259     0.056071946883938
 260    -0.0002184238295648
 261    -7.7709836904927e-05
 262    0.00027220606404562
 263    -0.00027115292838427
 264    -0.00041767294121065
 265     0.010563816023983
 266    0.0072699199827392
 267    -0.00045713671674171
 268    -0.002425007836778
 269    0.0010076552209222
 270    0.0082549912607953
 271    0.0087681901113531
 272    -0.0009392241035883
 273    -0.0020749466303499
 274     0.002585457733967
 275    0.0084623093649751
 276    0.0068202130333757
 277    0.0013704073210545
 278    -0.0015170392682553
 279    0.0029779107476457
 280    -0.024859920483474
 281    -0.063737018902505
 282    -0.053170138770299
 283    -0.088597491084999
 284    -0.031629560754663
 285    -0.029778078379391
 286     0.063236082804777
 287     0.022210430262354
 288     0.020003170857291
 289    -0.00011390760797397
 290    -0.00026537875172654
 291    0.00026227261421103
 292    7.0113305951335e-05
 293    -0.00046915144199899
 294     0.010219513880603
 295    0.0069591193176498
 296    0.0024061794395324
 297    0.00057982894671612
 298    -0.00052650181686848
 299    0.0081104245269929
 300    0.0066738351733504
 301     0.002794846763919
 302    3.1450878541125e-05
 303    0.0021415307116129
 304    0.0079665636535126
 305    0.0083557524845021
 306    0.0027995271075982
 307    0.0017720422615442
 308    0.0005174115750681
 309    -0.025719383058882
 310     -0.06598095208355
 311    -0.054747925419222
 312    -0.0051117733115446
 313    -0.061643631226698
 314     0.080327538981277
 315    0.0040472158336885
 316     0.042255543677709
 317    -0.058209089125205
 318    0.00015416822053957
 319    -0.00034503469498014
 320    0.00036105431397859
 321    -5.0609453000679e-05
 322    -0.00021155860139047
 323     0.010837591638086
 324    0.0073592197222681
 325    0.00017523361141929
 326    0.00032213209276552
 327    -0.0023622865580353
 328    0.0083625370345225
 329    0.0066131733905098
 330    0.0014199503692172
 331    0.0026236441281169
 332    -0.0021451265167366
 333    0.0079691106652447
 334    0.0076277846169216
 335    -0.0009111162817668
 336     0.001908677531681
 337    -0.0028426103546396
 338     0.049864772911597
 339      0.12402125979646
 340      0.11096434864399
 341    -0.090630910198575
 342      0.14227958720342
 343       0.1042872820616
 344      0.06541955038964