[Molden Format]
made by pyscf v[2.1.1]
[Atoms] (AU)
Cr   1   24     1.56143912275337    -2.46507591990239    -1.82404491365355
Cr   2   24    -1.56139565905251     2.46513072196000     1.82399011159594
O   3   8     0.00002078698737     0.00002834589187    -0.00002645616574
N   4   7     5.12832174930954    -1.10581670549011    -0.60767356069801
H   5   1     6.65216855026694    -1.66292686427314    -1.66487895135981
H   6   1     5.63710405218294    -1.59213394419468     1.18765885421890
H   7   1     5.20084187906585     0.81566059741989    -0.65509245834172
N   8   7     1.71230729763415    -0.02251608677419    -4.99594076510539
H   9   1     0.29795878723855     1.27247165241550    -4.90823668593820
H   10   1     1.50271021425414    -0.85583806455427    -6.73026148236459
H   11   1     3.34039895052705     0.99863710888315    -5.18656310846864
N   12   7     1.41057094787259    -4.90763575303059     1.34785282752440
H   13   1     1.64193389675534    -6.79355407945465     0.97314659318890
H   14   1    -0.29048681014202    -4.81040367474334     2.24006056107205
H   15   1     2.72468082571676    -4.56691435331926     2.71738081369757
N   16   7    -2.00544350380280    -3.82433513431467    -3.04041437688297
H   17   1    -2.87205678671934    -5.05516478184926    -1.83221042023780
H   18   1    -2.03637832046193    -4.76397121413665    -4.73247136936628
H   19   1    -3.24475802163669    -2.37551046050250    -3.28123540501917
N   20   7     3.37923471211299    -5.33493873459111    -3.94755661599306
H   21   1     4.17102617885350    -4.76109883042731    -5.61685374703210
H   22   1     2.26176595533881    -6.82326057413281    -4.47610923358166
H   23   1     4.85383336053810    -6.19899521806112    -3.03922195969837
N   24   7    -5.12827828560868     1.10587339727385     0.60762064836653
H   25   1    -5.15408816501799    -0.81544705836782     0.54662784797006
H   26   1    -5.69743166898356     1.68113626520945    -1.14337690194197
H   27   1    -6.63528195761783     1.56841410187914     1.73267665553083
N   28   7    -1.71226383393328     0.02257088883181     4.99588785277390
H   29   1    -1.62991523860311     0.86667375415253     6.73575491620870
H   30   1    -0.22416876152653    -1.19157625647512     4.98456461383551
H   31   1    -3.28782110056328    -1.08746368536834     5.11339858210385
N   32   7     2.00548696750367     3.82438993637228     3.04035957482536
H   33   1     2.05186651577887     4.68410571893416     4.77402266739321
H   34   1     2.83712330958063     5.12208376337235     1.87805706574587
H   35   1     3.26582090902109     2.38241174030942     3.19051154350492
N   36   7    -1.41052748417173     4.90769055508820    -1.34790762958202
H   37   1    -1.75003190025884     6.78104976168840    -0.99229329828299
H   38   1    -2.65834387984003     4.49309409198925    -2.75785496783350
H   39   1     0.32278033988471     4.89894112313146    -2.18344058692784
N   40   7    -3.37919124841212     5.33499353664873     3.94750181393545
H   41   1    -2.26357064378777     6.83195331430581     4.45515784003860
H   42   1    -4.15358022727151     4.76963661305810     5.62761006813313
H   43   1    -4.86681766873998     6.18449345978121     3.04686590187224
[GTO]
1 0
 s    6 1.00
          51528.086349  0.0017695545768669
          7737.2103487   0.013556436258096
           1760.374847   0.067162645785071
          496.87706544    0.23295905918518
          161.46520598    0.47040576982722
          55.466352268    0.35733072606876
 s    3 1.00
          107.54732999   -0.10605255446629
          12.408671897    0.62543981484169
          5.0423628826    0.44878820793655
 s    3 1.00
          8.5461640165   -0.21819012081133
          1.3900441221    0.70422525667731
         0.56066602876    0.42488555412558
 s    1 1.00
        0.071483705972                   1
 s    1 1.00
        0.028250687604                   1
 p    5 1.00
          640.48536096  0.0093555063746755
          150.69711194   0.068993338492216
          47.503755296     0.2634118959318
          16.934120165    0.51034501651775
           6.240968059    0.33195512953954
 p    3 1.00
          3.0885463206    0.32917682676976
          1.1791047769    0.55491385190365
         0.43369774432    0.23818412855984
 p    1 1.00
              0.120675                   1
 d    4 1.00
          27.559479426   0.036950140313562
          7.4687020327    0.18821519783039
          2.4345903574    0.44641244239929
         0.78244754808     0.5681617303244
 d    1 1.00
         0.21995774311                   1
 f    1 1.00
                 1.147                   1

2 0
 s    6 1.00
          51528.086349  0.0017695545768669
          7737.2103487   0.013556436258096
           1760.374847   0.067162645785071
          496.87706544    0.23295905918518
          161.46520598    0.47040576982722
          55.466352268    0.35733072606876
 s    3 1.00
          107.54732999   -0.10605255446629
          12.408671897    0.62543981484169
          5.0423628826    0.44878820793655
 s    3 1.00
          8.5461640165   -0.21819012081133
          1.3900441221    0.70422525667731
         0.56066602876    0.42488555412558
 s    1 1.00
        0.071483705972                   1
 s    1 1.00
        0.028250687604                   1
 p    5 1.00
          640.48536096  0.0093555063746755
          150.69711194   0.068993338492216
          47.503755296     0.2634118959318
          16.934120165    0.51034501651775
           6.240968059    0.33195512953954
 p    3 1.00
          3.0885463206    0.32917682676976
          1.1791047769    0.55491385190365
         0.43369774432    0.23818412855984
 p    1 1.00
              0.120675                   1
 d    4 1.00
          27.559479426   0.036950140313562
          7.4687020327    0.18821519783039
          2.4345903574    0.44641244239929
         0.78244754808     0.5681617303244
 d    1 1.00
         0.21995774311                   1
 f    1 1.00
                 1.147                   1

3 0
 s    5 1.00
          2266.1767785  -0.0053893503921743
          340.87010191   -0.04023472138896
          77.363135167   -0.18008184205526
           21.47964494   -0.46828857657651
          6.6589433124   -0.44692617160187
 s    1 1.00
         0.80975975668                   1
 s    1 1.00
         0.25530772234                   1
 p    3 1.00
          17.721504317   0.062630248763161
           3.863550544    0.33331138482352
          1.0480920883    0.74148638308122
 p    1 1.00
         0.27641544411                   1
 d    1 1.00
                   1.2                   1

4 0
 s    5 1.00
          1712.8415853  -0.0054477995804909
          257.64812677  -0.040627174632423
          58.458245853   -0.18111962250584
          16.198367905   -0.46843975563173
          5.0052600809   -0.44616846289231
 s    1 1.00
         0.58731856571                   1
 s    1 1.00
         0.18764592253                   1
 p    3 1.00
          13.571470233  -0.058848116969522
          2.9257372874   -0.32024624762471
         0.79927750754   -0.75328226520436
 p    1 1.00
         0.21954348034                   1
 d    1 1.00
                     1                   1

5 0
 s    3 1.00
             13.010701   0.033485484812989
             1.9622572    0.23472187088125
            0.44453796    0.81377028525955
 s    1 1.00
            0.12194962                   1
 p    1 1.00
                   0.8                   1

6 0
 s    3 1.00
             13.010701   0.033485484812989
             1.9622572    0.23472187088125
            0.44453796    0.81377028525955
 s    1 1.00
            0.12194962                   1
 p    1 1.00
                   0.8                   1

7 0
 s    3 1.00
             13.010701   0.033485484812989
             1.9622572    0.23472187088125
            0.44453796    0.81377028525955
 s    1 1.00
            0.12194962                   1
 p    1 1.00
                   0.8                   1

8 0
 s    5 1.00
          1712.8415853  -0.0054477995804909
          257.64812677  -0.040627174632423
          58.458245853   -0.18111962250584
          16.198367905   -0.46843975563173
          5.0052600809   -0.44616846289231
 s    1 1.00
         0.58731856571                   1
 s    1 1.00
         0.18764592253                   1
 p    3 1.00
          13.571470233  -0.058848116969522
          2.9257372874   -0.32024624762471
         0.79927750754   -0.75328226520436
 p    1 1.00
         0.21954348034                   1
 d    1 1.00
                     1                   1

9 0
 s    3 1.00
             13.010701   0.033485484812989
             1.9622572    0.23472187088125
            0.44453796    0.81377028525955
 s    1 1.00
            0.12194962                   1
 p    1 1.00
                   0.8                   1

10 0
 s    3 1.00
             13.010701   0.033485484812989
             1.9622572    0.23472187088125
            0.44453796    0.81377028525955
 s    1 1.00
            0.12194962                   1
 p    1 1.00
                   0.8                   1

11 0
 s    3 1.00
             13.010701   0.033485484812989
             1.9622572    0.23472187088125
            0.44453796    0.81377028525955
 s    1 1.00
            0.12194962                   1
 p    1 1.00
                   0.8                   1

12 0
 s    5 1.00
          1712.8415853  -0.0054477995804909
          257.64812677  -0.040627174632423
          58.458245853   -0.18111962250584
          16.198367905   -0.46843975563173
          5.0052600809   -0.44616846289231
 s    1 1.00
         0.58731856571                   1
 s    1 1.00
         0.18764592253                   1
 p    3 1.00
          13.571470233  -0.058848116969522
          2.9257372874   -0.32024624762471
         0.79927750754   -0.75328226520436
 p    1 1.00
         0.21954348034                   1
 d    1 1.00
                     1                   1

13 0
 s    3 1.00
             13.010701   0.033485484812989
             1.9622572    0.23472187088125
            0.44453796    0.81377028525955
 s    1 1.00
            0.12194962                   1
 p    1 1.00
                   0.8                   1

14 0
 s    3 1.00
             13.010701   0.033485484812989
             1.9622572    0.23472187088125
            0.44453796    0.81377028525955
 s    1 1.00
            0.12194962                   1
 p    1 1.00
                   0.8                   1

15 0
 s    3 1.00
             13.010701   0.033485484812989
             1.9622572    0.23472187088125
            0.44453796    0.81377028525955
 s    1 1.00
            0.12194962                   1
 p    1 1.00
                   0.8                   1

16 0
 s    5 1.00
          1712.8415853  -0.0054477995804909
          257.64812677  -0.040627174632423
          58.458245853   -0.18111962250584
          16.198367905   -0.46843975563173
          5.0052600809   -0.44616846289231
 s    1 1.00
         0.58731856571                   1
 s    1 1.00
         0.18764592253                   1
 p    3 1.00
          13.571470233  -0.058848116969522
          2.9257372874   -0.32024624762471
         0.79927750754   -0.75328226520436
 p    1 1.00
         0.21954348034                   1
 d    1 1.00
                     1                   1

17 0
 s    3 1.00
             13.010701   0.033485484812989
             1.9622572    0.23472187088125
            0.44453796    0.81377028525955
 s    1 1.00
            0.12194962                   1
 p    1 1.00
                   0.8                   1

18 0
 s    3 1.00
             13.010701   0.033485484812989
             1.9622572    0.23472187088125
            0.44453796    0.81377028525955
 s    1 1.00
            0.12194962                   1
 p    1 1.00
                   0.8                   1

19 0
 s    3 1.00
             13.010701   0.033485484812989
             1.9622572    0.23472187088125
            0.44453796    0.81377028525955
 s    1 1.00
            0.12194962                   1
 p    1 1.00
                   0.8                   1

20 0
 s    5 1.00
          1712.8415853  -0.0054477995804909
          257.64812677  -0.040627174632423
          58.458245853   -0.18111962250584
          16.198367905   -0.46843975563173
          5.0052600809   -0.44616846289231
 s    1 1.00
         0.58731856571                   1
 s    1 1.00
         0.18764592253                   1
 p    3 1.00
          13.571470233  -0.058848116969522
          2.9257372874   -0.32024624762471
         0.79927750754   -0.75328226520436
 p    1 1.00
         0.21954348034                   1
 d    1 1.00
                     1                   1

21 0
 s    3 1.00
             13.010701   0.033485484812989
             1.9622572    0.23472187088125
            0.44453796    0.81377028525955
 s    1 1.00
            0.12194962                   1
 p    1 1.00
                   0.8                   1

22 0
 s    3 1.00
             13.010701   0.033485484812989
             1.9622572    0.23472187088125
            0.44453796    0.81377028525955
 s    1 1.00
            0.12194962                   1
 p    1 1.00
                   0.8                   1

23 0
 s    3 1.00
             13.010701   0.033485484812989
             1.9622572    0.23472187088125
            0.44453796    0.81377028525955
 s    1 1.00
            0.12194962                   1
 p    1 1.00
                   0.8                   1

24 0
 s    5 1.00
          1712.8415853  -0.0054477995804909
          257.64812677  -0.040627174632423
          58.458245853   -0.18111962250584
          16.198367905   -0.46843975563173
          5.0052600809   -0.44616846289231
 s    1 1.00
         0.58731856571                   1
 s    1 1.00
         0.18764592253                   1
 p    3 1.00
          13.571470233  -0.058848116969522
          2.9257372874   -0.32024624762471
         0.79927750754   -0.75328226520436
 p    1 1.00
         0.21954348034                   1
 d    1 1.00
                     1                   1

25 0
 s    3 1.00
             13.010701   0.033485484812989
             1.9622572    0.23472187088125
            0.44453796    0.81377028525955
 s    1 1.00
            0.12194962                   1
 p    1 1.00
                   0.8                   1

26 0
 s    3 1.00
             13.010701   0.033485484812989
             1.9622572    0.23472187088125
            0.44453796    0.81377028525955
 s    1 1.00
            0.12194962                   1
 p    1 1.00
                   0.8                   1

27 0
 s    3 1.00
             13.010701   0.033485484812989
             1.9622572    0.23472187088125
            0.44453796    0.81377028525955
 s    1 1.00
            0.12194962                   1
 p    1 1.00
                   0.8                   1

28 0
 s    5 1.00
          1712.8415853  -0.0054477995804909
          257.64812677  -0.040627174632423
          58.458245853   -0.18111962250584
          16.198367905   -0.46843975563173
          5.0052600809   -0.44616846289231
 s    1 1.00
         0.58731856571                   1
 s    1 1.00
         0.18764592253                   1
 p    3 1.00
          13.571470233  -0.058848116969522
          2.9257372874   -0.32024624762471
         0.79927750754   -0.75328226520436
 p    1 1.00
         0.21954348034                   1
 d    1 1.00
                     1                   1

29 0
 s    3 1.00
             13.010701   0.033485484812989
             1.9622572    0.23472187088125
            0.44453796    0.81377028525955
 s    1 1.00
            0.12194962                   1
 p    1 1.00
                   0.8                   1

30 0
 s    3 1.00
             13.010701   0.033485484812989
             1.9622572    0.23472187088125
            0.44453796    0.81377028525955
 s    1 1.00
            0.12194962                   1
 p    1 1.00
                   0.8                   1

31 0
 s    3 1.00
             13.010701   0.033485484812989
             1.9622572    0.23472187088125
            0.44453796    0.81377028525955
 s    1 1.00
            0.12194962                   1
 p    1 1.00
                   0.8                   1

32 0
 s    5 1.00
          1712.8415853  -0.0054477995804909
          257.64812677  -0.040627174632423
          58.458245853   -0.18111962250584
          16.198367905   -0.46843975563173
          5.0052600809   -0.44616846289231
 s    1 1.00
         0.58731856571                   1
 s    1 1.00
         0.18764592253                   1
 p    3 1.00
          13.571470233  -0.058848116969522
          2.9257372874   -0.32024624762471
         0.79927750754   -0.75328226520436
 p    1 1.00
         0.21954348034                   1
 d    1 1.00
                     1                   1

33 0
 s    3 1.00
             13.010701   0.033485484812989
             1.9622572    0.23472187088125
            0.44453796    0.81377028525955
 s    1 1.00
            0.12194962                   1
 p    1 1.00
                   0.8                   1

34 0
 s    3 1.00
             13.010701   0.033485484812989
             1.9622572    0.23472187088125
            0.44453796    0.81377028525955
 s    1 1.00
            0.12194962                   1
 p    1 1.00
                   0.8                   1

35 0
 s    3 1.00
             13.010701   0.033485484812989
             1.9622572    0.23472187088125
            0.44453796    0.81377028525955
 s    1 1.00
            0.12194962                   1
 p    1 1.00
                   0.8                   1

36 0
 s    5 1.00
          1712.8415853  -0.0054477995804909
          257.64812677  -0.040627174632423
          58.458245853   -0.18111962250584
          16.198367905   -0.46843975563173
          5.0052600809   -0.44616846289231
 s    1 1.00
         0.58731856571                   1
 s    1 1.00
         0.18764592253                   1
 p    3 1.00
          13.571470233  -0.058848116969522
          2.9257372874   -0.32024624762471
         0.79927750754   -0.75328226520436
 p    1 1.00
         0.21954348034                   1
 d    1 1.00
                     1                   1

37 0
 s    3 1.00
             13.010701   0.033485484812989
             1.9622572    0.23472187088125
            0.44453796    0.81377028525955
 s    1 1.00
            0.12194962                   1
 p    1 1.00
                   0.8                   1

38 0
 s    3 1.00
             13.010701   0.033485484812989
             1.9622572    0.23472187088125
            0.44453796    0.81377028525955
 s    1 1.00
            0.12194962                   1
 p    1 1.00
                   0.8                   1

39 0
 s    3 1.00
             13.010701   0.033485484812989
             1.9622572    0.23472187088125
            0.44453796    0.81377028525955
 s    1 1.00
            0.12194962                   1
 p    1 1.00
                   0.8                   1

40 0
 s    5 1.00
          1712.8415853  -0.0054477995804909
          257.64812677  -0.040627174632423
          58.458245853   -0.18111962250584
          16.198367905   -0.46843975563173
          5.0052600809   -0.44616846289231
 s    1 1.00
         0.58731856571                   1
 s    1 1.00
         0.18764592253                   1
 p    3 1.00
          13.571470233  -0.058848116969522
          2.9257372874   -0.32024624762471
         0.79927750754   -0.75328226520436
 p    1 1.00
         0.21954348034                   1
 d    1 1.00
                     1                   1

41 0
 s    3 1.00
             13.010701   0.033485484812989
             1.9622572    0.23472187088125
            0.44453796    0.81377028525955
 s    1 1.00
            0.12194962                   1
 p    1 1.00
                   0.8                   1

42 0
 s    3 1.00
             13.010701   0.033485484812989
             1.9622572    0.23472187088125
            0.44453796    0.81377028525955
 s    1 1.00
            0.12194962                   1
 p    1 1.00
                   0.8                   1

43 0
 s    3 1.00
             13.010701   0.033485484812989
             1.9622572    0.23472187088125
            0.44453796    0.81377028525955
 s    1 1.00
            0.12194962                   1
 p    1 1.00
                   0.8                   1

[5d]
[7f]
[9g]

[MO]
 Sym= A
 Ene=               0
 Spin= Alpha
 Occup=    1.00000
   1    3.8751780456395e-05
   2    -7.5196659106841e-05
   3    0.0006707248701555
   4    -0.00036354246909532
   5    0.00033511935581844
   6    3.9192754808595e-05
   7    -3.6820985156079e-05
   8    -4.0764322676211e-05
   9    -0.00013857003660148
  10    0.00013277319332925
  11    0.00014558561875419
  12    0.00018866105704573
  13    4.5124016047883e-05
  14    -0.00023884049831566
  15    -0.00022993471405315
  16    0.0002441328400974
  17    0.00018838618462272
  18    0.00024585866815299
  19    0.00023683031685532
  20    -0.00085726851328666
  21    0.0004777049647335
  22    0.0011170680824578
  23    0.00067143947231318
  24    0.00031634557139047
  25    3.5952618768061e-05
  26    -6.4270707907263e-06
  27    -1.4883041284767e-05
  28    2.4198716242113e-05
  29    3.6018913040606e-05
  30    -3.7009217026004e-06
  31    -1.7284906033512e-05
  32    -3.1145366791277e-05
  33    5.4835758450871e-05
  34    -0.00054701626327379
  35    -4.5651412968459e-05
  36    -0.00042174468690063
  37    -5.9004024494097e-05
  38    -0.00019206917601239
  39    3.1942571142687e-05
  40    0.00018055216427674
  41    0.00060181595116491
  42    -0.00010236887608439
  43    0.00025449783460071
  44    -0.00010399848880403
  45    -2.3496408359228e-05
  46     0.095016566161846
  47    -0.062826389944248
  48     -0.11894310398754
  49     -0.10793733428781
  50    -0.058399942252349
  51     0.069503649544375
  52      -0.0458655639981
  53    -0.086918896899957
  54    -0.078267996395837
  55    -0.042539819397776
  56    0.00053365618802279
  57    -0.00042160916377235
  58    -0.00017658528216872
  59    0.0003092896626741
  60    -2.4492347111447e-05
  61    0.00053800877129247
  62    -0.00032630553114728
  63    0.00085638960838691
  64    0.0022290633699302
  65     0.001295840175921
  66    -0.00091939369235241
  67    0.0022048493547008
  68    0.0012005785142659
  69    -0.00086884795703317
  70    0.0017819162171232
  71    0.0011819380210603
  72    0.00038835268025647
  73    -0.00028798990826364
  74    -0.00046090303104686
  75    -0.0004523837935777
  76    -0.00027149212311258
  77    -0.00029523046998617
  78    0.00012259688378326
  79    -0.0028936106046255
  80    -4.6046938366694e-05
  81    0.00074368788277133
  82    0.00054900757661194
  83    0.0020155403046739
  84    -0.0017350443634278
  85    -0.0012672118730099
  86    1.0475242410334e-05
  87    -9.0407015595354e-05
  88    5.4292977506349e-05
  89    0.00010395533210199
  90    -4.9679581759213e-05
  91    -2.6674221507712e-05
  92    -0.00050954897005445
  93    6.0338341741271e-05
  94    -3.1821186549278e-05
  95    -0.0001356912070446
  96    3.8230654392506e-05
  97    1.2914996580798e-05
  98    -0.00016434550590309
  99    0.00011535982622378
 100    5.0330523012046e-05
 101    1.8114029282738e-05
 102    0.00081258103687947
 103    5.8134039222383e-05
 104    -5.9755637978737e-05
 105    0.00010376327743551
 106    8.627135820638e-05
 107    -0.00023579572961539
 108    0.0014426039320217
 109    0.00050595949683154
 110    -0.0014125625126548
 111    0.00059049510806307
 112    -0.00079857501823903
 113    0.0015125181470675
 114    0.0013502963522238
 115    -9.2658665173857e-05
 116    7.8685327512122e-06
 117    -7.8860711891741e-05
 118    6.2222530204299e-06
 119    -5.7544582101562e-05
 120    0.00040417878309032
 121    0.00035312044102043
 122    -5.161169593015e-05
 123    -9.6762969451351e-05
 124    0.0002116962983339
 125    0.0002892668272219
 126    0.00022584835451496
 127    7.5767787260934e-05
 128    0.00012492587429321
 129    6.305117888321e-05
 130    0.00013461944834672
 131    -0.00011287936126966
 132    -5.982083544028e-07
 133    -5.9252691637712e-05
 134    -0.00019645082750114
 135    0.00012272979445301
 136    -0.00037742800933898
 137    0.0026471515229813
 138    0.00046264311439501
 139    0.00022353021003987
 140    -0.0014917698883875
 141    -0.0012602911807471
 142     0.002168547508288
 143    0.0013689656749997
 144    5.1124702993328e-05
 145    -2.6232384025475e-05
 146    -3.2354096044609e-05
 147    0.00015718036015009
 148    3.5146267053808e-05
 149    0.0002167743393274
 150    0.00047339596503355
 151    1.849068178513e-05
 152    0.00013869241823684
 153    0.00011341203105189
 154    0.0001847861155945
 155    -0.00069046256200173
 156    -8.1743556128025e-05
 157    -2.7469793512045e-05
 158    -5.2688579978193e-05
 159    0.00016223278150568
 160    3.4679129137882e-05
 161    7.5981888057349e-05
 162    -0.00020768811208496
 163    -5.4721831116478e-06
 164    -0.00028145798574414
 165    2.5755780491181e-05
 166    -0.0021412877956682
 167    -0.00070101610348512
 168    0.00054958427151477
 169    0.00029979590182358
 170    0.00035820829869416
 171    -0.001974704342883
 172    -0.0017125681341848
 173    8.5295903364538e-05
 174    -1.4979620837149e-05
 175    9.5715266919317e-05
 176    -1.8664871119106e-05
 177    3.6442947752438e-05
 178    5.1624341565223e-05
 179    4.6693973446324e-05
 180    5.7979027122264e-06
 181    0.00014577764367498
 182    0.00013975045473439
 183    -7.8381360430604e-05
 184    -0.00036770595949278
 185    5.4770520417051e-05
 186    -3.274095819917e-06
 187    -0.00013229015617599
 188    -6.6616198297235e-05
 189    8.5040112090461e-05
 190    -0.00012986150100502
 191    -0.00012984719864829
 192    -2.596019227541e-05
 193    0.00037752987887937
 194    0.0010085600418678
 195    0.0010425183131862
 196    0.0006101544708966
 197    -0.0010038059406169
 198    -0.00070751709902393
 199    -0.00047695213356321
 200    0.00085993893914993
 201    0.00056156675731701
 202    -3.5680379276466e-06
 203    5.0260167290862e-06
 204    1.4115449766606e-06
 205    3.5349612419041e-06
 206    4.5699231263636e-06
 207    -0.00013547700561686
 208    -5.2060268324943e-05
 209    -1.0499034350831e-05
 210    1.9819431752787e-05
 211    1.9934821948957e-05
 212    -5.8589532284262e-05
 213    -0.00017889722570304
 214    -4.139751818264e-05
 215    2.1663720169302e-05
 216    1.5293067927924e-05
 217    -8.3721536531271e-05
 218    -0.000126198997354
 219    -2.7410530296921e-06
 220    3.299200030826e-05
 221    2.3907921250099e-05
 222    -0.060794661702361
 223     -0.15425883216347
 224     -0.13274171783199
 225      0.21246181029468
 226     0.086774733660152
 227     0.071917559231264
 228     -0.14828039212096
 229    -0.066265688660802
 230     -0.05176864155116
 231    0.00023324463191664
 232    -0.00028932271764243
 233    -0.00046703316743015
 234    -0.00011713530136743
 235    -0.00022223930481111
 236     0.016521189651891
 237     0.019652416757345
 238    -0.0072775909355978
 239    -0.00046505258463103
 240    -0.001769798664905
 241     0.025363988336239
 242     0.018914715028367
 243    -0.0060891581437205
 244    -0.0034181539686726
 245    0.00090593886159492
 246     0.025203481339074
 247     0.016130079561139
 248    -0.0040575212914632
 249    -0.0039041271551903
 250    -0.0045708601290831
 251     0.059925509152953
 252      0.15158047430353
 253      0.13141429748947
 254    -0.004158786527809
 255     -0.14863304082566
 256      0.18647515256445
 257    -0.00068406637255579
 258      0.10935729401132
 259     -0.13006256683834
 260    0.00014024799269195
 261    -0.00014847517153258
 262    -0.00043509428056364
 263    -0.00038362479480613
 264    -0.00031484067494939
 265    -0.026064797706599
 266    -0.016057336619453
 267    0.00017661820540848
 268    0.0065611408542881
 269    -0.0026391155402665
 270    -0.015387858766482
 271     -0.01987925826026
 272    0.0017428147500228
 273    0.0031051230823682
 274    -0.0065582576892785
 275    -0.025047435598935
 276    -0.017105051826136
 277    -0.0023027809284028
 278    0.0026110442886093
 279    -0.0059480804886949
 280    -0.060505968491401
 281      -0.1532960526045
 282     -0.13270874878703
 283      -0.2164530111552
 284    -0.076017780106697
 285    -0.072041357862908
 286      0.15643135403479
 287     0.049302732654677
 288     0.049237920764667
 289    0.00041683279231133
 290    -0.00016175657340011
 291    -0.00029304806458916
 292    -0.00043706711176266
 293    -2.7908720070405e-05
 294     0.026128184982703
 295     0.016235481766793
 296    0.0070343575543114
 297    0.00066437771904799
 298    -0.0010604060070119
 299     0.024994246983656
 300     0.017589281441157
 301    0.0053418325432326
 302    0.00057139064406186
 303    0.0044367036838661
 304     0.015587614254011
 305     0.019914211542909
 306    0.0055072162120049
 307    0.0042999152522952
 308    0.0027416169410285
 309     0.060309660494095
 310      0.15283420357723
 311      0.13155909355836
 312     0.012594161603811
 313      0.14418608825074
 314     -0.18959464347788
 315    -0.012272618532617
 316    -0.099645264058742
 317      0.13595781809875
 318    0.00043212623268306
 319    -0.00027676341403091
 320    -0.00025903262458754
 321    -0.00017350826455416
 322    -0.00015555507816868
 323    -0.025129081404422
 324    -0.015547746809484
 325    -0.0011975707240078
 326    -0.0010734530999137
 327    0.0070814964721164
 328    -0.023861484261305
 329    -0.019167787472907
 330    -0.0020788628980798
 331    -0.0056768036110554
 332    0.0036254053381858
 333    -0.018084764096773
 334    -0.019319914232474
 335    0.0017333853446634
 336    -0.0052995600079396
 337    0.0048350033289783
 338    0.00035326294658595
 339    0.00077642140001034