[Molden Format]
made by pyscf v[2.1.1]
[Atoms] (AU)
Cr   1   24     1.56143912275337    -2.46507591990239    -1.82404491365355
Cr   2   24    -1.56139565905251     2.46513072196000     1.82399011159594
O   3   8     0.00002078698737     0.00002834589187    -0.00002645616574
N   4   7     5.12832174930954    -1.10581670549011    -0.60767356069801
H   5   1     6.65216855026694    -1.66292686427314    -1.66487895135981
H   6   1     5.63710405218294    -1.59213394419468     1.18765885421890
H   7   1     5.20084187906585     0.81566059741989    -0.65509245834172
N   8   7     1.71230729763415    -0.02251608677419    -4.99594076510539
H   9   1     0.29795878723855     1.27247165241550    -4.90823668593820
H   10   1     1.50271021425414    -0.85583806455427    -6.73026148236459
H   11   1     3.34039895052705     0.99863710888315    -5.18656310846864
N   12   7     1.41057094787259    -4.90763575303059     1.34785282752440
H   13   1     1.64193389675534    -6.79355407945465     0.97314659318890
H   14   1    -0.29048681014202    -4.81040367474334     2.24006056107205
H   15   1     2.72468082571676    -4.56691435331926     2.71738081369757
N   16   7    -2.00544350380280    -3.82433513431467    -3.04041437688297
H   17   1    -2.87205678671934    -5.05516478184926    -1.83221042023780
H   18   1    -2.03637832046193    -4.76397121413665    -4.73247136936628
H   19   1    -3.24475802163669    -2.37551046050250    -3.28123540501917
N   20   7     3.37923471211299    -5.33493873459111    -3.94755661599306
H   21   1     4.17102617885350    -4.76109883042731    -5.61685374703210
H   22   1     2.26176595533881    -6.82326057413281    -4.47610923358166
H   23   1     4.85383336053810    -6.19899521806112    -3.03922195969837
N   24   7    -5.12827828560868     1.10587339727385     0.60762064836653
H   25   1    -5.15408816501799    -0.81544705836782     0.54662784797006
H   26   1    -5.69743166898356     1.68113626520945    -1.14337690194197
H   27   1    -6.63528195761783     1.56841410187914     1.73267665553083
N   28   7    -1.71226383393328     0.02257088883181     4.99588785277390
H   29   1    -1.62991523860311     0.86667375415253     6.73575491620870
H   30   1    -0.22416876152653    -1.19157625647512     4.98456461383551
H   31   1    -3.28782110056328    -1.08746368536834     5.11339858210385
N   32   7     2.00548696750367     3.82438993637228     3.04035957482536
H   33   1     2.05186651577887     4.68410571893416     4.77402266739321
H   34   1     2.83712330958063     5.12208376337235     1.87805706574587
H   35   1     3.26582090902109     2.38241174030942     3.19051154350492
N   36   7    -1.41052748417173     4.90769055508820    -1.34790762958202
H   37   1    -1.75003190025884     6.78104976168840    -0.99229329828299
H   38   1    -2.65834387984003     4.49309409198925    -2.75785496783350
H   39   1     0.32278033988471     4.89894112313146    -2.18344058692784
N   40   7    -3.37919124841212     5.33499353664873     3.94750181393545
H   41   1    -2.26357064378777     6.83195331430581     4.45515784003860
H   42   1    -4.15358022727151     4.76963661305810     5.62761006813313
H   43   1    -4.86681766873998     6.18449345978121     3.04686590187224
[GTO]
1 0
 s    6 1.00
          51528.086349  0.0017695545768669
          7737.2103487   0.013556436258096
           1760.374847   0.067162645785071
          496.87706544    0.23295905918518
          161.46520598    0.47040576982722
          55.466352268    0.35733072606876
 s    3 1.00
          107.54732999   -0.10605255446629
          12.408671897    0.62543981484169
          5.0423628826    0.44878820793655
 s    3 1.00
          8.5461640165   -0.21819012081133
          1.3900441221    0.70422525667731
         0.56066602876    0.42488555412558
 s    1 1.00
        0.071483705972                   1
 s    1 1.00
        0.028250687604                   1
 p    5 1.00
          640.48536096  0.0093555063746755
          150.69711194   0.068993338492216
          47.503755296     0.2634118959318
          16.934120165    0.51034501651775
           6.240968059    0.33195512953954
 p    3 1.00
          3.0885463206    0.32917682676976
          1.1791047769    0.55491385190365
         0.43369774432    0.23818412855984
 p    1 1.00
              0.120675                   1
 d    4 1.00
          27.559479426   0.036950140313562
          7.4687020327    0.18821519783039
          2.4345903574    0.44641244239929
         0.78244754808     0.5681617303244
 d    1 1.00
         0.21995774311                   1
 f    1 1.00
                 1.147                   1

2 0
 s    6 1.00
          51528.086349  0.0017695545768669
          7737.2103487   0.013556436258096
           1760.374847   0.067162645785071
          496.87706544    0.23295905918518
          161.46520598    0.47040576982722
          55.466352268    0.35733072606876
 s    3 1.00
          107.54732999   -0.10605255446629
          12.408671897    0.62543981484169
          5.0423628826    0.44878820793655
 s    3 1.00
          8.5461640165   -0.21819012081133
          1.3900441221    0.70422525667731
         0.56066602876    0.42488555412558
 s    1 1.00
        0.071483705972                   1
 s    1 1.00
        0.028250687604                   1
 p    5 1.00
          640.48536096  0.0093555063746755
          150.69711194   0.068993338492216
          47.503755296     0.2634118959318
          16.934120165    0.51034501651775
           6.240968059    0.33195512953954
 p    3 1.00
          3.0885463206    0.32917682676976
          1.1791047769    0.55491385190365
         0.43369774432    0.23818412855984
 p    1 1.00
              0.120675                   1
 d    4 1.00
          27.559479426   0.036950140313562
          7.4687020327    0.18821519783039
          2.4345903574    0.44641244239929
         0.78244754808     0.5681617303244
 d    1 1.00
         0.21995774311                   1
 f    1 1.00
                 1.147                   1

3 0
 s    5 1.00
          2266.1767785  -0.0053893503921743
          340.87010191   -0.04023472138896
          77.363135167   -0.18008184205526
           21.47964494   -0.46828857657651
          6.6589433124   -0.44692617160187
 s    1 1.00
         0.80975975668                   1
 s    1 1.00
         0.25530772234                   1
 p    3 1.00
          17.721504317   0.062630248763161
           3.863550544    0.33331138482352
          1.0480920883    0.74148638308122
 p    1 1.00
         0.27641544411                   1
 d    1 1.00
                   1.2                   1

4 0
 s    5 1.00
          1712.8415853  -0.0054477995804909
          257.64812677  -0.040627174632423
          58.458245853   -0.18111962250584
          16.198367905   -0.46843975563173
          5.0052600809   -0.44616846289231
 s    1 1.00
         0.58731856571                   1
 s    1 1.00
         0.18764592253                   1
 p    3 1.00
          13.571470233  -0.058848116969522
          2.9257372874   -0.32024624762471
         0.79927750754   -0.75328226520436
 p    1 1.00
         0.21954348034                   1
 d    1 1.00
                     1                   1

5 0
 s    3 1.00
             13.010701   0.033485484812989
             1.9622572    0.23472187088125
            0.44453796    0.81377028525955
 s    1 1.00
            0.12194962                   1
 p    1 1.00
                   0.8                   1

6 0
 s    3 1.00
             13.010701   0.033485484812989
             1.9622572    0.23472187088125
            0.44453796    0.81377028525955
 s    1 1.00
            0.12194962                   1
 p    1 1.00
                   0.8                   1

7 0
 s    3 1.00
             13.010701   0.033485484812989
             1.9622572    0.23472187088125
            0.44453796    0.81377028525955
 s    1 1.00
            0.12194962                   1
 p    1 1.00
                   0.8                   1

8 0
 s    5 1.00
          1712.8415853  -0.0054477995804909
          257.64812677  -0.040627174632423
          58.458245853   -0.18111962250584
          16.198367905   -0.46843975563173
          5.0052600809   -0.44616846289231
 s    1 1.00
         0.58731856571                   1
 s    1 1.00
         0.18764592253                   1
 p    3 1.00
          13.571470233  -0.058848116969522
          2.9257372874   -0.32024624762471
         0.79927750754   -0.75328226520436
 p    1 1.00
         0.21954348034                   1
 d    1 1.00
                     1                   1

9 0
 s    3 1.00
             13.010701   0.033485484812989
             1.9622572    0.23472187088125
            0.44453796    0.81377028525955
 s    1 1.00
            0.12194962                   1
 p    1 1.00
                   0.8                   1

10 0
 s    3 1.00
             13.010701   0.033485484812989
             1.9622572    0.23472187088125
            0.44453796    0.81377028525955
 s    1 1.00
            0.12194962                   1
 p    1 1.00
                   0.8                   1

11 0
 s    3 1.00
             13.010701   0.033485484812989
             1.9622572    0.23472187088125
            0.44453796    0.81377028525955
 s    1 1.00
            0.12194962                   1
 p    1 1.00
                   0.8                   1

12 0
 s    5 1.00
          1712.8415853  -0.0054477995804909
          257.64812677  -0.040627174632423
          58.458245853   -0.18111962250584
          16.198367905   -0.46843975563173
          5.0052600809   -0.44616846289231
 s    1 1.00
         0.58731856571                   1
 s    1 1.00
         0.18764592253                   1
 p    3 1.00
          13.571470233  -0.058848116969522
          2.9257372874   -0.32024624762471
         0.79927750754   -0.75328226520436
 p    1 1.00
         0.21954348034                   1
 d    1 1.00
                     1                   1

13 0
 s    3 1.00
             13.010701   0.033485484812989
             1.9622572    0.23472187088125
            0.44453796    0.81377028525955
 s    1 1.00
            0.12194962                   1
 p    1 1.00
                   0.8                   1

14 0
 s    3 1.00
             13.010701   0.033485484812989
             1.9622572    0.23472187088125
            0.44453796    0.81377028525955
 s    1 1.00
            0.12194962                   1
 p    1 1.00
                   0.8                   1

15 0
 s    3 1.00
             13.010701   0.033485484812989
             1.9622572    0.23472187088125
            0.44453796    0.81377028525955
 s    1 1.00
            0.12194962                   1
 p    1 1.00
                   0.8                   1

16 0
 s    5 1.00
          1712.8415853  -0.0054477995804909
          257.64812677  -0.040627174632423
          58.458245853   -0.18111962250584
          16.198367905   -0.46843975563173
          5.0052600809   -0.44616846289231
 s    1 1.00
         0.58731856571                   1
 s    1 1.00
         0.18764592253                   1
 p    3 1.00
          13.571470233  -0.058848116969522
          2.9257372874   -0.32024624762471
         0.79927750754   -0.75328226520436
 p    1 1.00
         0.21954348034                   1
 d    1 1.00
                     1                   1

17 0
 s    3 1.00
             13.010701   0.033485484812989
             1.9622572    0.23472187088125
            0.44453796    0.81377028525955
 s    1 1.00
            0.12194962                   1
 p    1 1.00
                   0.8                   1

18 0
 s    3 1.00
             13.010701   0.033485484812989
             1.9622572    0.23472187088125
            0.44453796    0.81377028525955
 s    1 1.00
            0.12194962                   1
 p    1 1.00
                   0.8                   1

19 0
 s    3 1.00
             13.010701   0.033485484812989
             1.9622572    0.23472187088125
            0.44453796    0.81377028525955
 s    1 1.00
            0.12194962                   1
 p    1 1.00
                   0.8                   1

20 0
 s    5 1.00
          1712.8415853  -0.0054477995804909
          257.64812677  -0.040627174632423
          58.458245853   -0.18111962250584
          16.198367905   -0.46843975563173
          5.0052600809   -0.44616846289231
 s    1 1.00
         0.58731856571                   1
 s    1 1.00
         0.18764592253                   1
 p    3 1.00
          13.571470233  -0.058848116969522
          2.9257372874   -0.32024624762471
         0.79927750754   -0.75328226520436
 p    1 1.00
         0.21954348034                   1
 d    1 1.00
                     1                   1

21 0
 s    3 1.00
             13.010701   0.033485484812989
             1.9622572    0.23472187088125
            0.44453796    0.81377028525955
 s    1 1.00
            0.12194962                   1
 p    1 1.00
                   0.8                   1

22 0
 s    3 1.00
             13.010701   0.033485484812989
             1.9622572    0.23472187088125
            0.44453796    0.81377028525955
 s    1 1.00
            0.12194962                   1
 p    1 1.00
                   0.8                   1

23 0
 s    3 1.00
             13.010701   0.033485484812989
             1.9622572    0.23472187088125
            0.44453796    0.81377028525955
 s    1 1.00
            0.12194962                   1
 p    1 1.00
                   0.8                   1

24 0
 s    5 1.00
          1712.8415853  -0.0054477995804909
          257.64812677  -0.040627174632423
          58.458245853   -0.18111962250584
          16.198367905   -0.46843975563173
          5.0052600809   -0.44616846289231
 s    1 1.00
         0.58731856571                   1
 s    1 1.00
         0.18764592253                   1
 p    3 1.00
          13.571470233  -0.058848116969522
          2.9257372874   -0.32024624762471
         0.79927750754   -0.75328226520436
 p    1 1.00
         0.21954348034                   1
 d    1 1.00
                     1                   1

25 0
 s    3 1.00
             13.010701   0.033485484812989
             1.9622572    0.23472187088125
            0.44453796    0.81377028525955
 s    1 1.00
            0.12194962                   1
 p    1 1.00
                   0.8                   1

26 0
 s    3 1.00
             13.010701   0.033485484812989
             1.9622572    0.23472187088125
            0.44453796    0.81377028525955
 s    1 1.00
            0.12194962                   1
 p    1 1.00
                   0.8                   1

27 0
 s    3 1.00
             13.010701   0.033485484812989
             1.9622572    0.23472187088125
            0.44453796    0.81377028525955
 s    1 1.00
            0.12194962                   1
 p    1 1.00
                   0.8                   1

28 0
 s    5 1.00
          1712.8415853  -0.0054477995804909
          257.64812677  -0.040627174632423
          58.458245853   -0.18111962250584
          16.198367905   -0.46843975563173
          5.0052600809   -0.44616846289231
 s    1 1.00
         0.58731856571                   1
 s    1 1.00
         0.18764592253                   1
 p    3 1.00
          13.571470233  -0.058848116969522
          2.9257372874   -0.32024624762471
         0.79927750754   -0.75328226520436
 p    1 1.00
         0.21954348034                   1
 d    1 1.00
                     1                   1

29 0
 s    3 1.00
             13.010701   0.033485484812989
             1.9622572    0.23472187088125
            0.44453796    0.81377028525955
 s    1 1.00
            0.12194962                   1
 p    1 1.00
                   0.8                   1

30 0
 s    3 1.00
             13.010701   0.033485484812989
             1.9622572    0.23472187088125
            0.44453796    0.81377028525955
 s    1 1.00
            0.12194962                   1
 p    1 1.00
                   0.8                   1

31 0
 s    3 1.00
             13.010701   0.033485484812989
             1.9622572    0.23472187088125
            0.44453796    0.81377028525955
 s    1 1.00
            0.12194962                   1
 p    1 1.00
                   0.8                   1

32 0
 s    5 1.00
          1712.8415853  -0.0054477995804909
          257.64812677  -0.040627174632423
          58.458245853   -0.18111962250584
          16.198367905   -0.46843975563173
          5.0052600809   -0.44616846289231
 s    1 1.00
         0.58731856571                   1
 s    1 1.00
         0.18764592253                   1
 p    3 1.00
          13.571470233  -0.058848116969522
          2.9257372874   -0.32024624762471
         0.79927750754   -0.75328226520436
 p    1 1.00
         0.21954348034                   1
 d    1 1.00
                     1                   1

33 0
 s    3 1.00
             13.010701   0.033485484812989
             1.9622572    0.23472187088125
            0.44453796    0.81377028525955
 s    1 1.00
            0.12194962                   1
 p    1 1.00
                   0.8                   1

34 0
 s    3 1.00
             13.010701   0.033485484812989
             1.9622572    0.23472187088125
            0.44453796    0.81377028525955
 s    1 1.00
            0.12194962                   1
 p    1 1.00
                   0.8                   1

35 0
 s    3 1.00
             13.010701   0.033485484812989
             1.9622572    0.23472187088125
            0.44453796    0.81377028525955
 s    1 1.00
            0.12194962                   1
 p    1 1.00
                   0.8                   1

36 0
 s    5 1.00
          1712.8415853  -0.0054477995804909
          257.64812677  -0.040627174632423
          58.458245853   -0.18111962250584
          16.198367905   -0.46843975563173
          5.0052600809   -0.44616846289231
 s    1 1.00
         0.58731856571                   1
 s    1 1.00
         0.18764592253                   1
 p    3 1.00
          13.571470233  -0.058848116969522
          2.9257372874   -0.32024624762471
         0.79927750754   -0.75328226520436
 p    1 1.00
         0.21954348034                   1
 d    1 1.00
                     1                   1

37 0
 s    3 1.00
             13.010701   0.033485484812989
             1.9622572    0.23472187088125
            0.44453796    0.81377028525955
 s    1 1.00
            0.12194962                   1
 p    1 1.00
                   0.8                   1

38 0
 s    3 1.00
             13.010701   0.033485484812989
             1.9622572    0.23472187088125
            0.44453796    0.81377028525955
 s    1 1.00
            0.12194962                   1
 p    1 1.00
                   0.8                   1

39 0
 s    3 1.00
             13.010701   0.033485484812989
             1.9622572    0.23472187088125
            0.44453796    0.81377028525955
 s    1 1.00
            0.12194962                   1
 p    1 1.00
                   0.8                   1

40 0
 s    5 1.00
          1712.8415853  -0.0054477995804909
          257.64812677  -0.040627174632423
          58.458245853   -0.18111962250584
          16.198367905   -0.46843975563173
          5.0052600809   -0.44616846289231
 s    1 1.00
         0.58731856571                   1
 s    1 1.00
         0.18764592253                   1
 p    3 1.00
          13.571470233  -0.058848116969522
          2.9257372874   -0.32024624762471
         0.79927750754   -0.75328226520436
 p    1 1.00
         0.21954348034                   1
 d    1 1.00
                     1                   1

41 0
 s    3 1.00
             13.010701   0.033485484812989
             1.9622572    0.23472187088125
            0.44453796    0.81377028525955
 s    1 1.00
            0.12194962                   1
 p    1 1.00
                   0.8                   1

42 0
 s    3 1.00
             13.010701   0.033485484812989
             1.9622572    0.23472187088125
            0.44453796    0.81377028525955
 s    1 1.00
            0.12194962                   1
 p    1 1.00
                   0.8                   1

43 0
 s    3 1.00
             13.010701   0.033485484812989
             1.9622572    0.23472187088125
            0.44453796    0.81377028525955
 s    1 1.00
            0.12194962                   1
 p    1 1.00
                   0.8                   1

[5d]
[7f]
[9g]

[MO]
 Sym= A
 Ene=               0
 Spin= Alpha
 Occup=    1.00000
   1    -3.746658465468e-06
   2    7.1123129069888e-06
   3    -6.6946211857132e-05
   4    -0.00028266118531871
   5    0.0016442731055528
   6    0.0047833368300314
   7    0.0043939672055256
   8    -0.0018379074388577
   9    -0.016813706255939
  10    -0.015450419801646
  11    0.0064641895183208
  12     0.060251084130649
  13     0.055519850427546
  14     -0.02320921411683
  15    -0.023915767884027
  16     0.047788652306001
  17     0.014385775393764
  18    -0.075533580210167
  19     0.020337200776789
  20    -0.014787060820214
  21     0.029222129474506
  22    0.0089646887094927
  23    -0.045733208202991
  24     0.012429797042901
  25    -0.00026437307855534
  26    0.0016700120693095
  27    -0.0015162830966577
  28    -0.0043202108851888
  29    0.0019816037275479
  30    0.0012079823795016
  31    -0.0044509744912957
  32    3.1936129127836e-06
  33    -5.4019191260116e-06
  34    6.0041818857372e-05
  35    -3.6821786520706e-05
  36    -0.00082354909186805
  37    0.0047823877435495
  38    0.0043960290492252
  39    -0.0018368502589633
  40    -0.016814697266124
  41    -0.015458598856246
  42    0.0064504731874873
  43     0.060344597935578
  44     0.055652353478245
  45    -0.022836149129469
  46     0.024063280922636
  47    -0.047861992560188
  48    -0.014269574688527
  49     0.075499912837424
  50    -0.020189092894875
  51     0.014746363666584
  52    -0.029142977066016
  53    -0.0090279998500513
  54     0.045727480760087
  55    -0.012700265166565
  56    -0.00026685667658547
  57    0.0016694663472179
  58    -0.0015225918531015
  59    -0.0043192137036729
  60    0.0019824332475166
  61    0.0012094158502203
  62    -0.0044488539339215
  63    6.8005741477713e-06
  64    7.5460837092011e-06
  65    7.2040167062901e-05
  66      0.39987651781801
  67      0.36695834391446
  68      -0.1540927409126
  69      0.34411344073698
  70      0.31609353993535
  71     -0.13266820855108
  72    -1.021034950979e-05
  73    5.5022009022272e-06
  74    -7.6040917807402e-06
  75    5.673431814195e-07
  76    -1.9637780158271e-05
  77    -0.0052815926780094
  78    -0.0083960748125501
  79    -0.046328748743232
  80    -0.0092102028738869
  81    0.0043318932598996
  82    -0.0016871528722245
  83     0.012506885519767
  84    -0.0049845274575821
  85     0.018094246311465
  86    -0.00010713793741279
  87    -0.00043235480630666
  88    -5.9110408517985e-05
  89    0.0018604123752656
  90    -0.0014411607781513
  91     0.013229324543242
  92     0.004340213454228
  93    -0.00016752243118441
  94    1.7705506255689e-05
  95    0.00040615206111164
  96    -0.0021177129956882
  97    -0.0035122546668067
  98    0.0010691173790786
  99    -0.00077859950521224
 100    0.00035352121329298
 101    -0.0055334047695409
 102     0.027811029795368
 103    -0.0036313106529755
 104    -0.00071953626871654
 105    -0.0004649889081584
 106    -0.0041838168264768
 107    -0.0080079521749865
 108    -0.027220478928269
 109    -0.0018240108343917
 110    -2.7042860959958e-05
 111    0.0072159358043024
 112    -0.0024933763044247
 113     0.012903902056488
 114    -0.0084283644829799
 115    0.0015562523619729
 116    -0.00036714508530263
 117    0.00096909221646915
 118    -1.3006249931976e-05
 119    3.3267289069656e-05
 120    -0.0063600150287423
 121    0.0039827332929385
 122    -0.00056793866827699
 123    0.00042837924375385
 124    0.0024735473336649
 125     0.010487435458056
 126    0.0099627128639309
 127    0.0008355147234068
 128    -0.00014360892046334
 129    0.00040652423382961
 130    -0.0026353937053726
 131    -0.0037336040131467
 132    0.00048476172477909
 133    -0.00021267318074712
 134    -0.00094219449090814
 135    0.0044193687622195
 136    0.0067487783651471
 137      0.04068459255141
 138    0.0057481753699508
 139    -0.0063789559784632
 140    0.0029435738683672
 141    -0.015878097167164
 142    0.0021536836876708
 143    -0.014121600424421
 144    0.00065659726854735
 145    -0.0012162793208515
 146    0.00021056379050218
 147     0.001229379059565
 148    0.00098078777492759
 149    -0.010926522158568
 150    -0.0029848828735981
 151    -3.9679198082861e-05
 152    -0.0002599176289231
 153    -0.00024637547393344
 154    0.0042714632846842
 155    -0.027758975794317
 156    -8.3182986488581e-05
 157    -0.0026639478043344
 158    0.0023051086354977
 159    0.0012967129341804
 160     0.003714813455179
 161    -0.00091598891135432
 162    0.00082560386832421
 163    -0.00044680032489287
 164    0.0050008671386959
 165    0.0094946747530106
 166     0.033278548882791
 167    -0.0038821107979947
 168    -0.0058499843386316
 169    -0.0051861960874466
 170     0.018882832266188
 171    -2.6272573105527e-05
 172    0.00062267370402502
 173    -0.00092357792836431
 174    -0.00037858656553897
 175    -0.0017385784811201
 176    0.00084810818384557
 177    -0.00046164882095135
 178    0.0039044033600949
 179    0.0028393437938902
 180    6.5516061907254e-05
 181    0.00094790488455382
 182    0.00033582360819488
 183    -0.013069611691957
 184    -0.011690829059669
 185    -0.00032307095898417
 186    0.00037760792967305
 187    -0.00079474022632903
 188    0.0074988727832853
 189    -0.0046746562621071
 190    -0.00077000498311637
 191    -0.0019028741487961
 192    -0.0013341990290092
 193    2.2078622787657e-06
 194    -1.2555294987777e-05
 195    0.00019889315618219
 196    0.0018525469359028
 197    0.0016877484715274
 198    -0.00069314262119488
 199    0.00021881434319289
 200    0.00010478372029135
 201    -0.00014967525199345
 202    0.0001410608258552
 203    -0.00015823112629094
 204    -0.0001176308368514
 205    0.00015767017383684
 206    -0.00011305368211894
 207    -0.0012125490335129
 208    -0.0030636205448332
 209    0.00019572153002082
 210    -0.00040604177659332
 211    -0.00051590132966122
 212    0.0013861933843877
 213     0.003189163616543
 214    -0.00019903963649099
 215    0.00057266321989599
 216    0.00048671669251739
 217    -0.00020490679623072
 218    -0.0007493231280819
 219    -9.6559730199641e-05
 220    -0.00026955149633213
 221    7.0056296464187e-05
 222    0.0053319332384163
 223    0.0082307263259622
 224      0.04797440699327
 225    -0.0093577921678776
 226    0.0046488457264129
 227    -0.0014140706582142
 228      0.01339715324359
 229    -0.0065799676251173
 230     0.016837187991781
 231    0.00010470381393537
 232    0.00041286162860422
 233    0.00018693976702032
 234    -0.001875751418607
 235    0.0013745618526039
 236    0.0051184410844929
 237    -0.029741570317834
 238    -0.0040077980840103
 239    -0.00071032925542695
 240    -0.00053155296017449
 241    0.0012079906004162
 242    0.0029508739034932
 243    0.0011538209119415
 244    -0.00079680506779246
 245    0.00019458873188417
 246    -0.012763424501592
 247    -0.0035294291734997
 248    -7.7535349443438e-05
 249    -6.8467349149518e-05
 250    0.0004597273764956
 251    0.0041535652677407
 252    0.0081543953962521
 253     0.026016006120965
 254    -0.0014647134859919
 255    -0.0002568097160555
 256    0.0071287080853951
 257    -0.0043069631354341
 258     0.013721909743183
 259    -0.0079074830990211
 260    -0.0015564205183663
 261    0.00041191011965815
 262    -0.0010009106074493
 263    3.4285793294389e-05
 264    7.9720239248114e-05
 265    -0.010780268650619
 266    -0.010552025670506
 267    0.00077785620986187
 268    -7.6385050588066e-05
 269    0.00048011048631532
 270    0.0066361936247237
 271    -0.0016323037293067
 272    -0.00071094788120971
 273    0.00045810954980769
 274    0.0020265184402027
 275    0.0032881504820353
 276    0.0029411136840525
 277    0.00049462730616127
 278    -0.00019961401208266
 279    -0.00076879651227065
 280    -0.0050241485866254
 281    -0.0094099821052839
 282    -0.034129927723942
 283     -0.00372931147634
 284    -0.0061488469026009
 285    -0.0051668895539603
 286      0.01837644271132
 287    0.0013693706337681
 288    0.00044119247166748
 289    0.00096445108047095
 290    0.00037733855262702
 291    0.0016751088822047
 292    -0.00083057927857784
 293    0.00052096661062885
 294     0.012853555499482
 295     0.011151983685055
 296    -0.00035009353667117
 297    0.00046729269690005
 298    -0.00076751759922029
 299    -0.0034222621565269
 300    -0.0032290761117431
 301    0.00011768493660718
 302    0.0010209564175415
 303    0.00047471778331802
 304    -0.007382002040854
 305    0.0064125976104768
 306    -0.00093214329776555
 307    -0.0020071684843803
 308    -0.0016343766004011
 309    -0.0043702996719415
 310    -0.0069232377016888
 311    -0.038799626347649
 312    0.0055825151522083
 313    -0.0061259317695082
 314    0.0031962482178903
 315    -0.014937088268023
 316    0.00085695284805541
 317    -0.015453941468821
 318    -0.00061861958599404
 319    0.0011696511974941
 320    -0.00013523046101409
 321    -0.001259333976543
 322    -0.0010654091761309
 323     0.011260239281068
 324    0.0038060966461405
 325    4.991511352153e-05
 326    -0.00030159111072426
 327    -0.00019047904565634
 328    -0.0020235030080713
 329    -0.0047670926173828
 330    -0.00096580682853862
 331    0.00069986793384632
 332    -0.00055245308961793
 333    -0.0046679565689383
 334     0.025735862663933
 335    -0.0001406135684927
 336    -0.002410307601926
 337    0.0021093054557182
 338    6.6494804713443e-06
 339    4.6808018627648e-05
 340    -0.00018379155084093
 341    0.0018254978514965