[Molden Format]
made by pyscf v[2.1.1]
[Atoms] (AU)
Cr   1   24     1.56143912275337    -2.46507591990239    -1.82404491365355
Cr   2   24    -1.56139565905251     2.46513072196000     1.82399011159594
O   3   8     0.00002078698737     0.00002834589187    -0.00002645616574
N   4   7     5.12832174930954    -1.10581670549011    -0.60767356069801
H   5   1     6.65216855026694    -1.66292686427314    -1.66487895135981
H   6   1     5.63710405218294    -1.59213394419468     1.18765885421890
H   7   1     5.20084187906585     0.81566059741989    -0.65509245834172
N   8   7     1.71230729763415    -0.02251608677419    -4.99594076510539
H   9   1     0.29795878723855     1.27247165241550    -4.90823668593820
H   10   1     1.50271021425414    -0.85583806455427    -6.73026148236459
H   11   1     3.34039895052705     0.99863710888315    -5.18656310846864
N   12   7     1.41057094787259    -4.90763575303059     1.34785282752440
H   13   1     1.64193389675534    -6.79355407945465     0.97314659318890
H   14   1    -0.29048681014202    -4.81040367474334     2.24006056107205
H   15   1     2.72468082571676    -4.56691435331926     2.71738081369757
N   16   7    -2.00544350380280    -3.82433513431467    -3.04041437688297
H   17   1    -2.87205678671934    -5.05516478184926    -1.83221042023780
H   18   1    -2.03637832046193    -4.76397121413665    -4.73247136936628
H   19   1    -3.24475802163669    -2.37551046050250    -3.28123540501917
N   20   7     3.37923471211299    -5.33493873459111    -3.94755661599306
H   21   1     4.17102617885350    -4.76109883042731    -5.61685374703210
H   22   1     2.26176595533881    -6.82326057413281    -4.47610923358166
H   23   1     4.85383336053810    -6.19899521806112    -3.03922195969837
N   24   7    -5.12827828560868     1.10587339727385     0.60762064836653
H   25   1    -5.15408816501799    -0.81544705836782     0.54662784797006
H   26   1    -5.69743166898356     1.68113626520945    -1.14337690194197
H   27   1    -6.63528195761783     1.56841410187914     1.73267665553083
N   28   7    -1.71226383393328     0.02257088883181     4.99588785277390
H   29   1    -1.62991523860311     0.86667375415253     6.73575491620870
H   30   1    -0.22416876152653    -1.19157625647512     4.98456461383551
H   31   1    -3.28782110056328    -1.08746368536834     5.11339858210385
N   32   7     2.00548696750367     3.82438993637228     3.04035957482536
H   33   1     2.05186651577887     4.68410571893416     4.77402266739321
H   34   1     2.83712330958063     5.12208376337235     1.87805706574587
H   35   1     3.26582090902109     2.38241174030942     3.19051154350492
N   36   7    -1.41052748417173     4.90769055508820    -1.34790762958202
H   37   1    -1.75003190025884     6.78104976168840    -0.99229329828299
H   38   1    -2.65834387984003     4.49309409198925    -2.75785496783350
H   39   1     0.32278033988471     4.89894112313146    -2.18344058692784
N   40   7    -3.37919124841212     5.33499353664873     3.94750181393545
H   41   1    -2.26357064378777     6.83195331430581     4.45515784003860
H   42   1    -4.15358022727151     4.76963661305810     5.62761006813313
H   43   1    -4.86681766873998     6.18449345978121     3.04686590187224
[GTO]
1 0
 s    6 1.00
          51528.086349  0.0017695545768669
          7737.2103487   0.013556436258096
           1760.374847   0.067162645785071
          496.87706544    0.23295905918518
          161.46520598    0.47040576982722
          55.466352268    0.35733072606876
 s    3 1.00
          107.54732999   -0.10605255446629
          12.408671897    0.62543981484169
          5.0423628826    0.44878820793655
 s    3 1.00
          8.5461640165   -0.21819012081133
          1.3900441221    0.70422525667731
         0.56066602876    0.42488555412558
 s    1 1.00
        0.071483705972                   1
 s    1 1.00
        0.028250687604                   1
 p    5 1.00
          640.48536096  0.0093555063746755
          150.69711194   0.068993338492216
          47.503755296     0.2634118959318
          16.934120165    0.51034501651775
           6.240968059    0.33195512953954
 p    3 1.00
          3.0885463206    0.32917682676976
          1.1791047769    0.55491385190365
         0.43369774432    0.23818412855984
 p    1 1.00
              0.120675                   1
 d    4 1.00
          27.559479426   0.036950140313562
          7.4687020327    0.18821519783039
          2.4345903574    0.44641244239929
         0.78244754808     0.5681617303244
 d    1 1.00
         0.21995774311                   1
 f    1 1.00
                 1.147                   1

2 0
 s    6 1.00
          51528.086349  0.0017695545768669
          7737.2103487   0.013556436258096
           1760.374847   0.067162645785071
          496.87706544    0.23295905918518
          161.46520598    0.47040576982722
          55.466352268    0.35733072606876
 s    3 1.00
          107.54732999   -0.10605255446629
          12.408671897    0.62543981484169
          5.0423628826    0.44878820793655
 s    3 1.00
          8.5461640165   -0.21819012081133
          1.3900441221    0.70422525667731
         0.56066602876    0.42488555412558
 s    1 1.00
        0.071483705972                   1
 s    1 1.00
        0.028250687604                   1
 p    5 1.00
          640.48536096  0.0093555063746755
          150.69711194   0.068993338492216
          47.503755296     0.2634118959318
          16.934120165    0.51034501651775
           6.240968059    0.33195512953954
 p    3 1.00
          3.0885463206    0.32917682676976
          1.1791047769    0.55491385190365
         0.43369774432    0.23818412855984
 p    1 1.00
              0.120675                   1
 d    4 1.00
          27.559479426   0.036950140313562
          7.4687020327    0.18821519783039
          2.4345903574    0.44641244239929
         0.78244754808     0.5681617303244
 d    1 1.00
         0.21995774311                   1
 f    1 1.00
                 1.147                   1

3 0
 s    5 1.00
          2266.1767785  -0.0053893503921743
          340.87010191   -0.04023472138896
          77.363135167   -0.18008184205526
           21.47964494   -0.46828857657651
          6.6589433124   -0.44692617160187
 s    1 1.00
         0.80975975668                   1
 s    1 1.00
         0.25530772234                   1
 p    3 1.00
          17.721504317   0.062630248763161
           3.863550544    0.33331138482352
          1.0480920883    0.74148638308122
 p    1 1.00
         0.27641544411                   1
 d    1 1.00
                   1.2                   1

4 0
 s    5 1.00
          1712.8415853  -0.0054477995804909
          257.64812677  -0.040627174632423
          58.458245853   -0.18111962250584
          16.198367905   -0.46843975563173
          5.0052600809   -0.44616846289231
 s    1 1.00
         0.58731856571                   1
 s    1 1.00
         0.18764592253                   1
 p    3 1.00
          13.571470233  -0.058848116969522
          2.9257372874   -0.32024624762471
         0.79927750754   -0.75328226520436
 p    1 1.00
         0.21954348034                   1
 d    1 1.00
                     1                   1

5 0
 s    3 1.00
             13.010701   0.033485484812989
             1.9622572    0.23472187088125
            0.44453796    0.81377028525955
 s    1 1.00
            0.12194962                   1
 p    1 1.00
                   0.8                   1

6 0
 s    3 1.00
             13.010701   0.033485484812989
             1.9622572    0.23472187088125
            0.44453796    0.81377028525955
 s    1 1.00
            0.12194962                   1
 p    1 1.00
                   0.8                   1

7 0
 s    3 1.00
             13.010701   0.033485484812989
             1.9622572    0.23472187088125
            0.44453796    0.81377028525955
 s    1 1.00
            0.12194962                   1
 p    1 1.00
                   0.8                   1

8 0
 s    5 1.00
          1712.8415853  -0.0054477995804909
          257.64812677  -0.040627174632423
          58.458245853   -0.18111962250584
          16.198367905   -0.46843975563173
          5.0052600809   -0.44616846289231
 s    1 1.00
         0.58731856571                   1
 s    1 1.00
         0.18764592253                   1
 p    3 1.00
          13.571470233  -0.058848116969522
          2.9257372874   -0.32024624762471
         0.79927750754   -0.75328226520436
 p    1 1.00
         0.21954348034                   1
 d    1 1.00
                     1                   1

9 0
 s    3 1.00
             13.010701   0.033485484812989
             1.9622572    0.23472187088125
            0.44453796    0.81377028525955
 s    1 1.00
            0.12194962                   1
 p    1 1.00
                   0.8                   1

10 0
 s    3 1.00
             13.010701   0.033485484812989
             1.9622572    0.23472187088125
            0.44453796    0.81377028525955
 s    1 1.00
            0.12194962                   1
 p    1 1.00
                   0.8                   1

11 0
 s    3 1.00
             13.010701   0.033485484812989
             1.9622572    0.23472187088125
            0.44453796    0.81377028525955
 s    1 1.00
            0.12194962                   1
 p    1 1.00
                   0.8                   1

12 0
 s    5 1.00
          1712.8415853  -0.0054477995804909
          257.64812677  -0.040627174632423
          58.458245853   -0.18111962250584
          16.198367905   -0.46843975563173
          5.0052600809   -0.44616846289231
 s    1 1.00
         0.58731856571                   1
 s    1 1.00
         0.18764592253                   1
 p    3 1.00
          13.571470233  -0.058848116969522
          2.9257372874   -0.32024624762471
         0.79927750754   -0.75328226520436
 p    1 1.00
         0.21954348034                   1
 d    1 1.00
                     1                   1

13 0
 s    3 1.00
             13.010701   0.033485484812989
             1.9622572    0.23472187088125
            0.44453796    0.81377028525955
 s    1 1.00
            0.12194962                   1
 p    1 1.00
                   0.8                   1

14 0
 s    3 1.00
             13.010701   0.033485484812989
             1.9622572    0.23472187088125
            0.44453796    0.81377028525955
 s    1 1.00
            0.12194962                   1
 p    1 1.00
                   0.8                   1

15 0
 s    3 1.00
             13.010701   0.033485484812989
             1.9622572    0.23472187088125
            0.44453796    0.81377028525955
 s    1 1.00
            0.12194962                   1
 p    1 1.00
                   0.8                   1

16 0
 s    5 1.00
          1712.8415853  -0.0054477995804909
          257.64812677  -0.040627174632423
          58.458245853   -0.18111962250584
          16.198367905   -0.46843975563173
          5.0052600809   -0.44616846289231
 s    1 1.00
         0.58731856571                   1
 s    1 1.00
         0.18764592253                   1
 p    3 1.00
          13.571470233  -0.058848116969522
          2.9257372874   -0.32024624762471
         0.79927750754   -0.75328226520436
 p    1 1.00
         0.21954348034                   1
 d    1 1.00
                     1                   1

17 0
 s    3 1.00
             13.010701   0.033485484812989
             1.9622572    0.23472187088125
            0.44453796    0.81377028525955
 s    1 1.00
            0.12194962                   1
 p    1 1.00
                   0.8                   1

18 0
 s    3 1.00
             13.010701   0.033485484812989
             1.9622572    0.23472187088125
            0.44453796    0.81377028525955
 s    1 1.00
            0.12194962                   1
 p    1 1.00
                   0.8                   1

19 0
 s    3 1.00
             13.010701   0.033485484812989
             1.9622572    0.23472187088125
            0.44453796    0.81377028525955
 s    1 1.00
            0.12194962                   1
 p    1 1.00
                   0.8                   1

20 0
 s    5 1.00
          1712.8415853  -0.0054477995804909
          257.64812677  -0.040627174632423
          58.458245853   -0.18111962250584
          16.198367905   -0.46843975563173
          5.0052600809   -0.44616846289231
 s    1 1.00
         0.58731856571                   1
 s    1 1.00
         0.18764592253                   1
 p    3 1.00
          13.571470233  -0.058848116969522
          2.9257372874   -0.32024624762471
         0.79927750754   -0.75328226520436
 p    1 1.00
         0.21954348034                   1
 d    1 1.00
                     1                   1

21 0
 s    3 1.00
             13.010701   0.033485484812989
             1.9622572    0.23472187088125
            0.44453796    0.81377028525955
 s    1 1.00
            0.12194962                   1
 p    1 1.00
                   0.8                   1

22 0
 s    3 1.00
             13.010701   0.033485484812989
             1.9622572    0.23472187088125
            0.44453796    0.81377028525955
 s    1 1.00
            0.12194962                   1
 p    1 1.00
                   0.8                   1

23 0
 s    3 1.00
             13.010701   0.033485484812989
             1.9622572    0.23472187088125
            0.44453796    0.81377028525955
 s    1 1.00
            0.12194962                   1
 p    1 1.00
                   0.8                   1

24 0
 s    5 1.00
          1712.8415853  -0.0054477995804909
          257.64812677  -0.040627174632423
          58.458245853   -0.18111962250584
          16.198367905   -0.46843975563173
          5.0052600809   -0.44616846289231
 s    1 1.00
         0.58731856571                   1
 s    1 1.00
         0.18764592253                   1
 p    3 1.00
          13.571470233  -0.058848116969522
          2.9257372874   -0.32024624762471
         0.79927750754   -0.75328226520436
 p    1 1.00
         0.21954348034                   1
 d    1 1.00
                     1                   1

25 0
 s    3 1.00
             13.010701   0.033485484812989
             1.9622572    0.23472187088125
            0.44453796    0.81377028525955
 s    1 1.00
            0.12194962                   1
 p    1 1.00
                   0.8                   1

26 0
 s    3 1.00
             13.010701   0.033485484812989
             1.9622572    0.23472187088125
            0.44453796    0.81377028525955
 s    1 1.00
            0.12194962                   1
 p    1 1.00
                   0.8                   1

27 0
 s    3 1.00
             13.010701   0.033485484812989
             1.9622572    0.23472187088125
            0.44453796    0.81377028525955
 s    1 1.00
            0.12194962                   1
 p    1 1.00
                   0.8                   1

28 0
 s    5 1.00
          1712.8415853  -0.0054477995804909
          257.64812677  -0.040627174632423
          58.458245853   -0.18111962250584
          16.198367905   -0.46843975563173
          5.0052600809   -0.44616846289231
 s    1 1.00
         0.58731856571                   1
 s    1 1.00
         0.18764592253                   1
 p    3 1.00
          13.571470233  -0.058848116969522
          2.9257372874   -0.32024624762471
         0.79927750754   -0.75328226520436
 p    1 1.00
         0.21954348034                   1
 d    1 1.00
                     1                   1

29 0
 s    3 1.00
             13.010701   0.033485484812989
             1.9622572    0.23472187088125
            0.44453796    0.81377028525955
 s    1 1.00
            0.12194962                   1
 p    1 1.00
                   0.8                   1

30 0
 s    3 1.00
             13.010701   0.033485484812989
             1.9622572    0.23472187088125
            0.44453796    0.81377028525955
 s    1 1.00
            0.12194962                   1
 p    1 1.00
                   0.8                   1

31 0
 s    3 1.00
             13.010701   0.033485484812989
             1.9622572    0.23472187088125
            0.44453796    0.81377028525955
 s    1 1.00
            0.12194962                   1
 p    1 1.00
                   0.8                   1

32 0
 s    5 1.00
          1712.8415853  -0.0054477995804909
          257.64812677  -0.040627174632423
          58.458245853   -0.18111962250584
          16.198367905   -0.46843975563173
          5.0052600809   -0.44616846289231
 s    1 1.00
         0.58731856571                   1
 s    1 1.00
         0.18764592253                   1
 p    3 1.00
          13.571470233  -0.058848116969522
          2.9257372874   -0.32024624762471
         0.79927750754   -0.75328226520436
 p    1 1.00
         0.21954348034                   1
 d    1 1.00
                     1                   1

33 0
 s    3 1.00
             13.010701   0.033485484812989
             1.9622572    0.23472187088125
            0.44453796    0.81377028525955
 s    1 1.00
            0.12194962                   1
 p    1 1.00
                   0.8                   1

34 0
 s    3 1.00
             13.010701   0.033485484812989
             1.9622572    0.23472187088125
            0.44453796    0.81377028525955
 s    1 1.00
            0.12194962                   1
 p    1 1.00
                   0.8                   1

35 0
 s    3 1.00
             13.010701   0.033485484812989
             1.9622572    0.23472187088125
            0.44453796    0.81377028525955
 s    1 1.00
            0.12194962                   1
 p    1 1.00
                   0.8                   1

36 0
 s    5 1.00
          1712.8415853  -0.0054477995804909
          257.64812677  -0.040627174632423
          58.458245853   -0.18111962250584
          16.198367905   -0.46843975563173
          5.0052600809   -0.44616846289231
 s    1 1.00
         0.58731856571                   1
 s    1 1.00
         0.18764592253                   1
 p    3 1.00
          13.571470233  -0.058848116969522
          2.9257372874   -0.32024624762471
         0.79927750754   -0.75328226520436
 p    1 1.00
         0.21954348034                   1
 d    1 1.00
                     1                   1

37 0
 s    3 1.00
             13.010701   0.033485484812989
             1.9622572    0.23472187088125
            0.44453796    0.81377028525955
 s    1 1.00
            0.12194962                   1
 p    1 1.00
                   0.8                   1

38 0
 s    3 1.00
             13.010701   0.033485484812989
             1.9622572    0.23472187088125
            0.44453796    0.81377028525955
 s    1 1.00
            0.12194962                   1
 p    1 1.00
                   0.8                   1

39 0
 s    3 1.00
             13.010701   0.033485484812989
             1.9622572    0.23472187088125
            0.44453796    0.81377028525955
 s    1 1.00
            0.12194962                   1
 p    1 1.00
                   0.8                   1

40 0
 s    5 1.00
          1712.8415853  -0.0054477995804909
          257.64812677  -0.040627174632423
          58.458245853   -0.18111962250584
          16.198367905   -0.46843975563173
          5.0052600809   -0.44616846289231
 s    1 1.00
         0.58731856571                   1
 s    1 1.00
         0.18764592253                   1
 p    3 1.00
          13.571470233  -0.058848116969522
          2.9257372874   -0.32024624762471
         0.79927750754   -0.75328226520436
 p    1 1.00
         0.21954348034                   1
 d    1 1.00
                     1                   1

41 0
 s    3 1.00
             13.010701   0.033485484812989
             1.9622572    0.23472187088125
            0.44453796    0.81377028525955
 s    1 1.00
            0.12194962                   1
 p    1 1.00
                   0.8                   1

42 0
 s    3 1.00
             13.010701   0.033485484812989
             1.9622572    0.23472187088125
            0.44453796    0.81377028525955
 s    1 1.00
            0.12194962                   1
 p    1 1.00
                   0.8                   1

43 0
 s    3 1.00
             13.010701   0.033485484812989
             1.9622572    0.23472187088125
            0.44453796    0.81377028525955
 s    1 1.00
            0.12194962                   1
 p    1 1.00
                   0.8                   1

[5d]
[7f]
[9g]

[MO]
 Sym= A
 Ene=               0
 Spin= Alpha
 Occup=    1.00000
   1    1.1480016311133e-05
   2    -3.0400157446666e-05
   3    0.00017017392900724
   4    -0.00037602787784584
   5    -0.00031155218003698
   6    -0.00020646851739629
   7    5.6599623040992e-05
   8    -0.00025044623879243
   9    0.00067196921370051
  10    -0.00018524518714396
  11    0.00081358731554844
  12    -0.0010364250739264
  13    0.00034678735025191
  14    -0.0011712608448111
  15      0.38111601352143
  16      0.63589123696686
  17     0.076298065661114
  18       0.1587867179652
  19     -0.51063840338683
  20     0.080934695775985
  21      0.13507042941484
  22     0.016212634511131
  23     0.033785490551035
  24     -0.10857157106911
  25    -0.00098660670484762
  26    -0.00085761508229311
  27    -0.00065805115604715
  28    0.00054543787218291
  29    -0.00032090990890149
  30    -0.00080560478189012
  31    -0.00093717385857804
  32    -1.8508139060378e-06
  33    4.2852565019611e-06
  34    -3.0350910021427e-05
  35    0.00012333320427271
  36    0.00010432527666896
  37    -3.7661956861396e-06
  38    -3.7986507052077e-07
  39    -1.3027427342926e-05
  40    1.3591915686958e-05
  41    1.5436924362023e-06
  42    4.5317408874302e-05
  43    -4.4397707896564e-05
  44    -1.9623153440083e-05
  45    -0.00013504808355188
  46    -0.00010777302839762
  47    -0.00015384308446981
  48    -1.285275906107e-05
  49    -4.1035761110819e-05
  50    9.2981391549059e-05
  51    0.00014534155044503
  52    0.00011747569859554
  53    6.7312059017406e-05
  54    1.6511564196113e-05
  55    -5.7013397264551e-05
  56    -8.3698093366678e-06
  57    -2.0028284192464e-06
  58    -1.3057546076583e-05
  59    5.0241558023277e-06
  60    -4.1418392705482e-07
  61    -1.2761977480654e-06
  62    -1.3073375955765e-06
  63    1.4371793483231e-05
  64    3.2514108997959e-05
  65    -2.4444949470471e-06
  66    -0.00048387819082013
  67    0.00023652082680522
  68    -0.00072569163628162
  69    -0.00023926107638665
  70    0.00018905269665053
  71    -0.000413438208153
  72    0.00042580173559156
  73    0.00069312207758884
  74    9.3721829991325e-05
  75    0.00017229379770989
  76    -0.00055761899643356
  77    2.9891881935302e-06
  78    2.6241403336146e-05
  79    -0.00048979307368735
  80    -0.0013303636795435
  81    -0.012700575339572
  82     0.015739760856475
  83    0.0015524561918315
  84    0.0082336353216352
  85     -0.01126462899246
  86    -0.0025782357364297
  87    -0.0032602474550431
  88    4.4028328505103e-05
  89    -0.001022731800951
  90     0.002190096071633
  91    0.0077388666543022
  92    0.0030961371604482
  93    -0.00052681391351225
  94    0.00087865839260558
  95    -0.0002495943080128
  96    -0.024483812190808
  97    -0.011579935542941
  98    0.00062613889539402
  99    -7.8908751934594e-05
 100    0.0015293329407225
 101     0.017444638793065
 102    0.0095360476467279
 103    5.4131024014264e-05
 104    -0.0014269189212073
 105    -0.00067332529630196
 106    -4.8386649455994e-06
 107    -8.1792011581783e-05
 108    0.00063839057209247
 109    -0.019190174672255
 110    -0.0069061944720751
 111    -0.0069074744700896
 112     0.012895185419788
 113    0.0053327885357498
 114    0.0055238359709073
 115    -0.0022330869434523
 116    -0.0029106980279267
 117    -0.00073979947146964
 118    -0.00033225137628107
 119    0.0031170547847212
 120     -0.01187143108727
 121    -0.0066019202150217
 122    -0.00018018725282512
 123    0.0012658266140904
 124    0.00043650887352438
 125    -0.014650278838988
 126    -0.0061610140424729
 127    0.00076746462082272
 128    -0.00047280288314119
 129    -0.0010128231926725
 130     0.025859613535006
 131      0.01206585364258
 132    -0.0014566634560136
 133    -0.00098876342153527
 134    0.00047087335789961
 135    1.1281174018423e-06
 136    1.2909573413482e-05
 137    -0.00039496313066789
 138     0.018058746322935
 139    0.0072280724815515
 140    0.0055980530101315
 141    -0.012083978285642
 142    -0.0057447780082686
 143    -0.0041424213316201
 144    -0.0020646057310504
 145    -0.0037927762966026
 146    -0.00040799131492766
 147    -0.00082808936234946
 148    0.0018992353192434
 149    0.0076889501361116
 150    0.0030880889718998
 151    -0.00095634579711744
 152    0.00043173408849664
 153    -2.4542612031327e-05
 154     0.017424579676623
 155    0.0094274582645287
 156    0.00093254846351966
 157    -0.00049581441094629
 158    -0.0011480924565915
 159    -0.024530463745521
 160    -0.011607558856185
 161    0.00086411235393838
 162    0.00015316578826264
 163    0.0014168439331015
 164    5.7410952446727e-06
 165    -4.7103765412017e-05
 166    0.00064475967392279
 167    0.00018948307654734
 168     0.012997036462926
 169    -0.017085430552656
 170    -0.0003044969763536
 171    -0.0080629208190633
 172     0.012180311701567
 173    -0.0015749660188493
 174    -0.0032356985084571
 175    -0.0011193440870084
 176    -0.00069018203409098
 177    0.0029849174077864
 178     0.025870991557763
 179     0.012267792289254
 180    0.0010574759694328
 181    0.0011357531496524
 182    -0.00097279322991704
 183    -0.011200049643075
 184    -0.0046325818673486
 185    8.5798326290955e-05
 186    -0.0012073018998033
 187    -0.00022798080191798
 188    -0.015341387698901
 189    -0.0083719218338566
 190    -0.0011300880657839
 191    0.00082194445552243
 192    0.00058924271304136
 193    2.7196793884419e-05
 194    6.8703476099437e-05
 195    -8.5918877815462e-06
 196    0.0014838554278306
 197    -0.00027562541597426
 198    0.0016591716091848
 199    -0.00093194697359544
 200    0.00016381428388494
 201    -0.00087961409120763
 202    0.00023024047346751
 203    0.00036274216884746
 204    5.5329566533729e-05
 205    8.6206860424443e-05
 206    -0.00028353403485057
 207    0.00041912337192608
 208    0.00027827026706117
 209    -0.00030779419657307
 210    -0.00017736943747395
 211    -3.2958624558152e-05
 212    0.00044656510831224
 213    0.00026157293790296
 214    0.00011082002654943
 215    0.00023266665297362
 216    -0.00024453308162719
 217    -0.00090650802836755
 218    -0.00026116410303597
 219    0.00019649730456931
 220    -7.3753693791253e-05
 221    0.0002506731088791
 222    5.1995708916984e-05
 223    0.00017133134869675
 224    -0.00044606679909137
 225    2.8793727484255e-06
 226    0.00015645736223407
 227    0.0002008748411854
 228    7.4174950838487e-05
 229    -3.4044435210419e-05
 230    -0.00019183511016952
 231    -4.9323082476235e-06
 232    2.0546596139618e-05
 233    -1.0493460464638e-05
 234    -1.4968858047725e-05
 235    -1.7813389400202e-06
 236    0.00012980753699477
 237    0.00065709646878335
 238    -4.7162763284979e-05
 239    3.1395488404995e-05
 240    2.4026468641558e-05
 241    4.3905386160892e-05
 242    0.00031142705432502
 243    -5.591227162948e-06
 244    -9.2783840807922e-06
 245    4.2906268496411e-05
 246    -7.0960063495279e-05
 247    -0.00013355400492521
 248    1.9683148459816e-06
 249    -9.0624907902354e-06
 250    -1.0028032507471e-05
 251    -3.096940078031e-05
 252    -0.00012285230215583
 253    0.00048892784094375
 254    -1.670999112295e-06
 255    -0.00019475941309183
 256    -1.0922325583568e-05
 257    0.00016909844122038
 258    0.00010207443181413
 259    0.00015317905279546
 260    1.7686593731295e-05
 261    1.1368015410042e-05
 262    1.342172760166e-05
 263    -1.225258526136e-05
 264    -3.9806476479189e-06
 265    1.6559228820861e-05
 266    9.9683112864002e-05
 267    -9.7172389243698e-06
 268    1.7627186159984e-05
 269    8.6367036759757e-06
 270    -0.00011903818022242
 271    -0.00063861837503069
 272    1.8345201375131e-05
 273    -3.5494890881126e-05
 274    -6.0410252075694e-05
 275    -1.066968327052e-05
 276    -0.00034871820260123
 277    -2.0630990791524e-05
 278    -2.2766421987636e-05
 279    -1.7202841853923e-05
 280    -3.3421899682839e-05
 281    -0.00012845932635298
 282    0.0004863015018989
 283    0.00015952410460795
 284    -2.3246738539248e-05
 285    -0.00010262536928744
 286    1.042652529396e-05
 287    -5.067985186993e-05
 288    0.00023924949310557
 289    2.0403254599152e-05
 290    3.1486555147543e-06
 291    1.7133225502137e-05
 292    8.0477060692436e-06
 293    -3.6201793667733e-06
 294    1.878391994231e-05
 295    0.00010742350551469
 296    -1.2356848099346e-05
 297    1.3813162298054e-05
 298    9.9468064512532e-06
 299    -9.642337855452e-06
 300    -0.00039919071408126
 301    1.1940414098609e-05
 302    1.0289139767991e-05
 303    -3.4268855956161e-05
 304    -0.000120794423036
 305    -0.000610609625253
 306    3.2799978075879e-06
 307    -4.599203344994e-05
 308    -5.100028554683e-05
 309    5.5831266612624e-05
 310    0.00018336767663428
 311    -0.00046852307160546
 312    -7.0438627635915e-05
 313    0.00010617561010737
 314    0.00024453715853908
 315    -2.299734314255e-07
 316    -0.0001583350040419
 317    -0.00012444261409083
 318    2.9648632182439e-06
 319    -1.084999902314e-07
 320    -1.0377051913943e-05
 321    2.4077433682709e-05
 322    -1.6757122444294e-07
 323    -6.8204126603976e-05
 324    -0.00017400390418801
 325    2.624706404396e-06
 326    -3.525080503827e-06
 327    -1.1535339618433e-05
 328    4.3579665343974e-05
 329    0.00042546421053444
 330    3.0534439429999e-05
 331    2.7338493265688e-05
 332    3.7589077488987e-05
 333    0.00014424190283977
 334    0.0006347706544019
 335    -2.4154968432471e-05
 336    3.7139395950487e-05
 337    6.0867024522123e-06