[Molden Format]
made by pyscf v[2.1.1]
[Atoms] (AU)
Cr   1   24     1.56143912275337    -2.46507591990239    -1.82404491365355
Cr   2   24    -1.56139565905251     2.46513072196000     1.82399011159594
O   3   8     0.00002078698737     0.00002834589187    -0.00002645616574
N   4   7     5.12832174930954    -1.10581670549011    -0.60767356069801
H   5   1     6.65216855026694    -1.66292686427314    -1.66487895135981
H   6   1     5.63710405218294    -1.59213394419468     1.18765885421890
H   7   1     5.20084187906585     0.81566059741989    -0.65509245834172
N   8   7     1.71230729763415    -0.02251608677419    -4.99594076510539
H   9   1     0.29795878723855     1.27247165241550    -4.90823668593820
H   10   1     1.50271021425414    -0.85583806455427    -6.73026148236459
H   11   1     3.34039895052705     0.99863710888315    -5.18656310846864
N   12   7     1.41057094787259    -4.90763575303059     1.34785282752440
H   13   1     1.64193389675534    -6.79355407945465     0.97314659318890
H   14   1    -0.29048681014202    -4.81040367474334     2.24006056107205
H   15   1     2.72468082571676    -4.56691435331926     2.71738081369757
N   16   7    -2.00544350380280    -3.82433513431467    -3.04041437688297
H   17   1    -2.87205678671934    -5.05516478184926    -1.83221042023780
H   18   1    -2.03637832046193    -4.76397121413665    -4.73247136936628
H   19   1    -3.24475802163669    -2.37551046050250    -3.28123540501917
N   20   7     3.37923471211299    -5.33493873459111    -3.94755661599306
H   21   1     4.17102617885350    -4.76109883042731    -5.61685374703210
H   22   1     2.26176595533881    -6.82326057413281    -4.47610923358166
H   23   1     4.85383336053810    -6.19899521806112    -3.03922195969837
N   24   7    -5.12827828560868     1.10587339727385     0.60762064836653
H   25   1    -5.15408816501799    -0.81544705836782     0.54662784797006
H   26   1    -5.69743166898356     1.68113626520945    -1.14337690194197
H   27   1    -6.63528195761783     1.56841410187914     1.73267665553083
N   28   7    -1.71226383393328     0.02257088883181     4.99588785277390
H   29   1    -1.62991523860311     0.86667375415253     6.73575491620870
H   30   1    -0.22416876152653    -1.19157625647512     4.98456461383551
H   31   1    -3.28782110056328    -1.08746368536834     5.11339858210385
N   32   7     2.00548696750367     3.82438993637228     3.04035957482536
H   33   1     2.05186651577887     4.68410571893416     4.77402266739321
H   34   1     2.83712330958063     5.12208376337235     1.87805706574587
H   35   1     3.26582090902109     2.38241174030942     3.19051154350492
N   36   7    -1.41052748417173     4.90769055508820    -1.34790762958202
H   37   1    -1.75003190025884     6.78104976168840    -0.99229329828299
H   38   1    -2.65834387984003     4.49309409198925    -2.75785496783350
H   39   1     0.32278033988471     4.89894112313146    -2.18344058692784
N   40   7    -3.37919124841212     5.33499353664873     3.94750181393545
H   41   1    -2.26357064378777     6.83195331430581     4.45515784003860
H   42   1    -4.15358022727151     4.76963661305810     5.62761006813313
H   43   1    -4.86681766873998     6.18449345978121     3.04686590187224
[GTO]
1 0
 s    6 1.00
          51528.086349  0.0017695545768669
          7737.2103487   0.013556436258096
           1760.374847   0.067162645785071
          496.87706544    0.23295905918518
          161.46520598    0.47040576982722
          55.466352268    0.35733072606876
 s    3 1.00
          107.54732999   -0.10605255446629
          12.408671897    0.62543981484169
          5.0423628826    0.44878820793655
 s    3 1.00
          8.5461640165   -0.21819012081133
          1.3900441221    0.70422525667731
         0.56066602876    0.42488555412558
 s    1 1.00
        0.071483705972                   1
 s    1 1.00
        0.028250687604                   1
 p    5 1.00
          640.48536096  0.0093555063746755
          150.69711194   0.068993338492216
          47.503755296     0.2634118959318
          16.934120165    0.51034501651775
           6.240968059    0.33195512953954
 p    3 1.00
          3.0885463206    0.32917682676976
          1.1791047769    0.55491385190365
         0.43369774432    0.23818412855984
 p    1 1.00
              0.120675                   1
 d    4 1.00
          27.559479426   0.036950140313562
          7.4687020327    0.18821519783039
          2.4345903574    0.44641244239929
         0.78244754808     0.5681617303244
 d    1 1.00
         0.21995774311                   1
 f    1 1.00
                 1.147                   1

2 0
 s    6 1.00
          51528.086349  0.0017695545768669
          7737.2103487   0.013556436258096
           1760.374847   0.067162645785071
          496.87706544    0.23295905918518
          161.46520598    0.47040576982722
          55.466352268    0.35733072606876
 s    3 1.00
          107.54732999   -0.10605255446629
          12.408671897    0.62543981484169
          5.0423628826    0.44878820793655
 s    3 1.00
          8.5461640165   -0.21819012081133
          1.3900441221    0.70422525667731
         0.56066602876    0.42488555412558
 s    1 1.00
        0.071483705972                   1
 s    1 1.00
        0.028250687604                   1
 p    5 1.00
          640.48536096  0.0093555063746755
          150.69711194   0.068993338492216
          47.503755296     0.2634118959318
          16.934120165    0.51034501651775
           6.240968059    0.33195512953954
 p    3 1.00
          3.0885463206    0.32917682676976
          1.1791047769    0.55491385190365
         0.43369774432    0.23818412855984
 p    1 1.00
              0.120675                   1
 d    4 1.00
          27.559479426   0.036950140313562
          7.4687020327    0.18821519783039
          2.4345903574    0.44641244239929
         0.78244754808     0.5681617303244
 d    1 1.00
         0.21995774311                   1
 f    1 1.00
                 1.147                   1

3 0
 s    5 1.00
          2266.1767785  -0.0053893503921743
          340.87010191   -0.04023472138896
          77.363135167   -0.18008184205526
           21.47964494   -0.46828857657651
          6.6589433124   -0.44692617160187
 s    1 1.00
         0.80975975668                   1
 s    1 1.00
         0.25530772234                   1
 p    3 1.00
          17.721504317   0.062630248763161
           3.863550544    0.33331138482352
          1.0480920883    0.74148638308122
 p    1 1.00
         0.27641544411                   1
 d    1 1.00
                   1.2                   1

4 0
 s    5 1.00
          1712.8415853  -0.0054477995804909
          257.64812677  -0.040627174632423
          58.458245853   -0.18111962250584
          16.198367905   -0.46843975563173
          5.0052600809   -0.44616846289231
 s    1 1.00
         0.58731856571                   1
 s    1 1.00
         0.18764592253                   1
 p    3 1.00
          13.571470233  -0.058848116969522
          2.9257372874   -0.32024624762471
         0.79927750754   -0.75328226520436
 p    1 1.00
         0.21954348034                   1
 d    1 1.00
                     1                   1

5 0
 s    3 1.00
             13.010701   0.033485484812989
             1.9622572    0.23472187088125
            0.44453796    0.81377028525955
 s    1 1.00
            0.12194962                   1
 p    1 1.00
                   0.8                   1

6 0
 s    3 1.00
             13.010701   0.033485484812989
             1.9622572    0.23472187088125
            0.44453796    0.81377028525955
 s    1 1.00
            0.12194962                   1
 p    1 1.00
                   0.8                   1

7 0
 s    3 1.00
             13.010701   0.033485484812989
             1.9622572    0.23472187088125
            0.44453796    0.81377028525955
 s    1 1.00
            0.12194962                   1
 p    1 1.00
                   0.8                   1

8 0
 s    5 1.00
          1712.8415853  -0.0054477995804909
          257.64812677  -0.040627174632423
          58.458245853   -0.18111962250584
          16.198367905   -0.46843975563173
          5.0052600809   -0.44616846289231
 s    1 1.00
         0.58731856571                   1
 s    1 1.00
         0.18764592253                   1
 p    3 1.00
          13.571470233  -0.058848116969522
          2.9257372874   -0.32024624762471
         0.79927750754   -0.75328226520436
 p    1 1.00
         0.21954348034                   1
 d    1 1.00
                     1                   1

9 0
 s    3 1.00
             13.010701   0.033485484812989
             1.9622572    0.23472187088125
            0.44453796    0.81377028525955
 s    1 1.00
            0.12194962                   1
 p    1 1.00
                   0.8                   1

10 0
 s    3 1.00
             13.010701   0.033485484812989
             1.9622572    0.23472187088125
            0.44453796    0.81377028525955
 s    1 1.00
            0.12194962                   1
 p    1 1.00
                   0.8                   1

11 0
 s    3 1.00
             13.010701   0.033485484812989
             1.9622572    0.23472187088125
            0.44453796    0.81377028525955
 s    1 1.00
            0.12194962                   1
 p    1 1.00
                   0.8                   1

12 0
 s    5 1.00
          1712.8415853  -0.0054477995804909
          257.64812677  -0.040627174632423
          58.458245853   -0.18111962250584
          16.198367905   -0.46843975563173
          5.0052600809   -0.44616846289231
 s    1 1.00
         0.58731856571                   1
 s    1 1.00
         0.18764592253                   1
 p    3 1.00
          13.571470233  -0.058848116969522
          2.9257372874   -0.32024624762471
         0.79927750754   -0.75328226520436
 p    1 1.00
         0.21954348034                   1
 d    1 1.00
                     1                   1

13 0
 s    3 1.00
             13.010701   0.033485484812989
             1.9622572    0.23472187088125
            0.44453796    0.81377028525955
 s    1 1.00
            0.12194962                   1
 p    1 1.00
                   0.8                   1

14 0
 s    3 1.00
             13.010701   0.033485484812989
             1.9622572    0.23472187088125
            0.44453796    0.81377028525955
 s    1 1.00
            0.12194962                   1
 p    1 1.00
                   0.8                   1

15 0
 s    3 1.00
             13.010701   0.033485484812989
             1.9622572    0.23472187088125
            0.44453796    0.81377028525955
 s    1 1.00
            0.12194962                   1
 p    1 1.00
                   0.8                   1

16 0
 s    5 1.00
          1712.8415853  -0.0054477995804909
          257.64812677  -0.040627174632423
          58.458245853   -0.18111962250584
          16.198367905   -0.46843975563173
          5.0052600809   -0.44616846289231
 s    1 1.00
         0.58731856571                   1
 s    1 1.00
         0.18764592253                   1
 p    3 1.00
          13.571470233  -0.058848116969522
          2.9257372874   -0.32024624762471
         0.79927750754   -0.75328226520436
 p    1 1.00
         0.21954348034                   1
 d    1 1.00
                     1                   1

17 0
 s    3 1.00
             13.010701   0.033485484812989
             1.9622572    0.23472187088125
            0.44453796    0.81377028525955
 s    1 1.00
            0.12194962                   1
 p    1 1.00
                   0.8                   1

18 0
 s    3 1.00
             13.010701   0.033485484812989
             1.9622572    0.23472187088125
            0.44453796    0.81377028525955
 s    1 1.00
            0.12194962                   1
 p    1 1.00
                   0.8                   1

19 0
 s    3 1.00
             13.010701   0.033485484812989
             1.9622572    0.23472187088125
            0.44453796    0.81377028525955
 s    1 1.00
            0.12194962                   1
 p    1 1.00
                   0.8                   1

20 0
 s    5 1.00
          1712.8415853  -0.0054477995804909
          257.64812677  -0.040627174632423
          58.458245853   -0.18111962250584
          16.198367905   -0.46843975563173
          5.0052600809   -0.44616846289231
 s    1 1.00
         0.58731856571                   1
 s    1 1.00
         0.18764592253                   1
 p    3 1.00
          13.571470233  -0.058848116969522
          2.9257372874   -0.32024624762471
         0.79927750754   -0.75328226520436
 p    1 1.00
         0.21954348034                   1
 d    1 1.00
                     1                   1

21 0
 s    3 1.00
             13.010701   0.033485484812989
             1.9622572    0.23472187088125
            0.44453796    0.81377028525955
 s    1 1.00
            0.12194962                   1
 p    1 1.00
                   0.8                   1

22 0
 s    3 1.00
             13.010701   0.033485484812989
             1.9622572    0.23472187088125
            0.44453796    0.81377028525955
 s    1 1.00
            0.12194962                   1
 p    1 1.00
                   0.8                   1

23 0
 s    3 1.00
             13.010701   0.033485484812989
             1.9622572    0.23472187088125
            0.44453796    0.81377028525955
 s    1 1.00
            0.12194962                   1
 p    1 1.00
                   0.8                   1

24 0
 s    5 1.00
          1712.8415853  -0.0054477995804909
          257.64812677  -0.040627174632423
          58.458245853   -0.18111962250584
          16.198367905   -0.46843975563173
          5.0052600809   -0.44616846289231
 s    1 1.00
         0.58731856571                   1
 s    1 1.00
         0.18764592253                   1
 p    3 1.00
          13.571470233  -0.058848116969522
          2.9257372874   -0.32024624762471
         0.79927750754   -0.75328226520436
 p    1 1.00
         0.21954348034                   1
 d    1 1.00
                     1                   1

25 0
 s    3 1.00
             13.010701   0.033485484812989
             1.9622572    0.23472187088125
            0.44453796    0.81377028525955
 s    1 1.00
            0.12194962                   1
 p    1 1.00
                   0.8                   1

26 0
 s    3 1.00
             13.010701   0.033485484812989
             1.9622572    0.23472187088125
            0.44453796    0.81377028525955
 s    1 1.00
            0.12194962                   1
 p    1 1.00
                   0.8                   1

27 0
 s    3 1.00
             13.010701   0.033485484812989
             1.9622572    0.23472187088125
            0.44453796    0.81377028525955
 s    1 1.00
            0.12194962                   1
 p    1 1.00
                   0.8                   1

28 0
 s    5 1.00
          1712.8415853  -0.0054477995804909
          257.64812677  -0.040627174632423
          58.458245853   -0.18111962250584
          16.198367905   -0.46843975563173
          5.0052600809   -0.44616846289231
 s    1 1.00
         0.58731856571                   1
 s    1 1.00
         0.18764592253                   1
 p    3 1.00
          13.571470233  -0.058848116969522
          2.9257372874   -0.32024624762471
         0.79927750754   -0.75328226520436
 p    1 1.00
         0.21954348034                   1
 d    1 1.00
                     1                   1

29 0
 s    3 1.00
             13.010701   0.033485484812989
             1.9622572    0.23472187088125
            0.44453796    0.81377028525955
 s    1 1.00
            0.12194962                   1
 p    1 1.00
                   0.8                   1

30 0
 s    3 1.00
             13.010701   0.033485484812989
             1.9622572    0.23472187088125
            0.44453796    0.81377028525955
 s    1 1.00
            0.12194962                   1
 p    1 1.00
                   0.8                   1

31 0
 s    3 1.00
             13.010701   0.033485484812989
             1.9622572    0.23472187088125
            0.44453796    0.81377028525955
 s    1 1.00
            0.12194962                   1
 p    1 1.00
                   0.8                   1

32 0
 s    5 1.00
          1712.8415853  -0.0054477995804909
          257.64812677  -0.040627174632423
          58.458245853   -0.18111962250584
          16.198367905   -0.46843975563173
          5.0052600809   -0.44616846289231
 s    1 1.00
         0.58731856571                   1
 s    1 1.00
         0.18764592253                   1
 p    3 1.00
          13.571470233  -0.058848116969522
          2.9257372874   -0.32024624762471
         0.79927750754   -0.75328226520436
 p    1 1.00
         0.21954348034                   1
 d    1 1.00
                     1                   1

33 0
 s    3 1.00
             13.010701   0.033485484812989
             1.9622572    0.23472187088125
            0.44453796    0.81377028525955
 s    1 1.00
            0.12194962                   1
 p    1 1.00
                   0.8                   1

34 0
 s    3 1.00
             13.010701   0.033485484812989
             1.9622572    0.23472187088125
            0.44453796    0.81377028525955
 s    1 1.00
            0.12194962                   1
 p    1 1.00
                   0.8                   1

35 0
 s    3 1.00
             13.010701   0.033485484812989
             1.9622572    0.23472187088125
            0.44453796    0.81377028525955
 s    1 1.00
            0.12194962                   1
 p    1 1.00
                   0.8                   1

36 0
 s    5 1.00
          1712.8415853  -0.0054477995804909
          257.64812677  -0.040627174632423
          58.458245853   -0.18111962250584
          16.198367905   -0.46843975563173
          5.0052600809   -0.44616846289231
 s    1 1.00
         0.58731856571                   1
 s    1 1.00
         0.18764592253                   1
 p    3 1.00
          13.571470233  -0.058848116969522
          2.9257372874   -0.32024624762471
         0.79927750754   -0.75328226520436
 p    1 1.00
         0.21954348034                   1
 d    1 1.00
                     1                   1

37 0
 s    3 1.00
             13.010701   0.033485484812989
             1.9622572    0.23472187088125
            0.44453796    0.81377028525955
 s    1 1.00
            0.12194962                   1
 p    1 1.00
                   0.8                   1

38 0
 s    3 1.00
             13.010701   0.033485484812989
             1.9622572    0.23472187088125
            0.44453796    0.81377028525955
 s    1 1.00
            0.12194962                   1
 p    1 1.00
                   0.8                   1

39 0
 s    3 1.00
             13.010701   0.033485484812989
             1.9622572    0.23472187088125
            0.44453796    0.81377028525955
 s    1 1.00
            0.12194962                   1
 p    1 1.00
                   0.8                   1

40 0
 s    5 1.00
          1712.8415853  -0.0054477995804909
          257.64812677  -0.040627174632423
          58.458245853   -0.18111962250584
          16.198367905   -0.46843975563173
          5.0052600809   -0.44616846289231
 s    1 1.00
         0.58731856571                   1
 s    1 1.00
         0.18764592253                   1
 p    3 1.00
          13.571470233  -0.058848116969522
          2.9257372874   -0.32024624762471
         0.79927750754   -0.75328226520436
 p    1 1.00
         0.21954348034                   1
 d    1 1.00
                     1                   1

41 0
 s    3 1.00
             13.010701   0.033485484812989
             1.9622572    0.23472187088125
            0.44453796    0.81377028525955
 s    1 1.00
            0.12194962                   1
 p    1 1.00
                   0.8                   1

42 0
 s    3 1.00
             13.010701   0.033485484812989
             1.9622572    0.23472187088125
            0.44453796    0.81377028525955
 s    1 1.00
            0.12194962                   1
 p    1 1.00
                   0.8                   1

43 0
 s    3 1.00
             13.010701   0.033485484812989
             1.9622572    0.23472187088125
            0.44453796    0.81377028525955
 s    1 1.00
            0.12194962                   1
 p    1 1.00
                   0.8                   1

[5d]
[7f]
[9g]

[MO]
 Sym= A
 Ene=               0
 Spin= Alpha
 Occup=    1.00000
   1    1.1422742070204e-05
   2    -3.0249963913179e-05
   3    0.00016930067538357
   4    -0.00037518328790947
   5    -0.0003125592464864
   6    -0.00020633107345939
   7    5.6595106089537e-05
   8    -0.00024995334116961
   9    0.00067114560427546
  10    -0.00018508465669765
  11    0.00081124732766747
  12    -0.0010348367665511
  13    0.00034568071086498
  14    -0.0011685259835707
  15      0.38113225257404
  16      0.63588887697634
  17     0.076308500911436
  18      0.15878539851221
  19     -0.51062833221901
  20     0.080933594033434
  21      0.13507003491697
  22     0.016212477327942
  23     0.033785471692622
  24     -0.10857251152548
  25    -0.00098680063183056
  26    -0.00085725209135857
  27    -0.00065867392361526
  28    0.00054564314652901
  29    -0.0003209535495637
  30    -0.00080530675309791
  31    -0.00093694375038985
  32    -1.793778439211e-06
  33    4.1357327137082e-06
  34    -2.9480777626489e-05
  35    0.00012252051781297
  36    0.0001052898654806
  37    -3.6392235442255e-06
  38    -3.8387776211035e-07
  39    -1.2544353564602e-05
  40    1.2800776841376e-05
  41    1.7005139341385e-06
  42    4.3009477682045e-05
  43    -4.2919360750921e-05
  44    -2.0653697306606e-05
  45    -0.00013249623613793
  46    -0.00012889075857229
  47    -0.00015206406670302
  48    -2.7245309333409e-05
  49    -3.7123437111277e-05
  50    7.862602185187e-05
  51    0.00014541864838864
  52    0.00011774729095441
  53    6.6697923920109e-05
  54    1.7095927471931e-05
  55    -5.6961685781593e-05
  56    -8.5684596604371e-06
  57    -1.6329694362945e-06
  58    -1.3694864288023e-05
  59    5.2398137587605e-06
  60    -4.5909716206463e-07
  61    -9.721769424743e-07
  62    -1.065215253804e-06
  63    1.4385382917714e-05
  64    3.2551463085907e-05
  65    -2.4285974237727e-06
  66    -0.00040937041714294
  67    0.00019862362874041
  68    -0.00060841708467501
  69    -0.00022169313658661
  70    0.00017737150369672
  71    -0.00038905453994667
  72    0.00042583631101976
  73    0.00069312816350125
  74    9.374364276474e-05
  75    0.00017227969284651
  76    -0.00055758547881364
  77    2.7336448635015e-06
  78    2.6327275174402e-05
  79    -0.00049305400048183
  80    -0.0013303425832837
  81    -0.012700718643616
  82     0.015739611344012
  83     0.001554852555737
  84    0.0082353904068045
  85    -0.011264464328993
  86    -0.0025783152262167
  87    -0.003260370807922
  88    4.3984599079617e-05
  89    -0.0010226606733657
  90    0.0021901382631045
  91    0.0077399486918129
  92     0.003097446682921
  93    -0.00052692507801916
  94    0.00087860943614715
  95    -0.00024955889939292
  96    -0.024483824783821
  97    -0.011580443582305
  98    0.00062586808749067
  99    -7.8961721598187e-05
 100    0.0015292872576985
 101     0.017444342629358
 102    0.0095340895878349
 103    5.4077272409779e-05
 104    -0.0014268026278989
 105    -0.00067329462660602
 106    -4.5780326377451e-06
 107    -8.2666168466187e-05
 108    0.00064519080378242
 109    -0.019190158026116
 110    -0.0069063562915918
 111    -0.006907158413676
 112      0.01289222548846
 113     0.005332033304223
 114    0.0055272308748864
 115    -0.0022331443405076
 116    -0.0029106348191208
 117    -0.00073977718379447
 118    -0.0003323463470252
 119    0.0031168735621135
 120    -0.011872094678776
 121    -0.0066030041285457
 122    -0.00018018399322165
 123    0.0012660578379333
 124    0.00043645856134893
 125    -0.014651356096738
 126    -0.0061607494749693
 127    0.00076754900892192
 128    -0.00047277811913815
 129    -0.0010129406972856
 130       0.0258593381504
 131     0.012066412864681
 132    -0.0014566423585693
 133    -0.00098875925825881
 134    0.0004707630227554
 135    7.6420325152958e-07
 136    1.3005268187807e-05
 137    -0.00039974398061727
 138     0.018058723684665
 139    0.0072280250902846
 140    0.0055978530409829
 141    -0.012084462492858
 142    -0.0057471657836922
 143    -0.0041398209285928
 144    -0.0020647307064038
 145    -0.003792772797683
 146    -0.00040805806741599
 147    -0.0008282037407228
 148    0.0018992803982526
 149    0.0076903616461786
 150      0.00308946965085
 151    -0.00095631662818657
 152    0.00043186318377255
 153    -2.459624739151e-05
 154     0.017424298466542
 155    0.0094258643808263
 156    0.00093245956885732
 157    -0.00049568924078506
 158    -0.0011481132343161
 159    -0.024530472858259
 160    -0.011608297797779
 161    0.00086410105127658
 162    0.00015339316266882
 163    0.0014166665567058
 164    5.8935106921485e-06
 165    -4.7951469641316e-05
 166    0.00065014571805316
 167    0.0001897739712468
 168     0.012997223322273
 169    -0.017085178765027
 170    -0.00030319470022216
 171    -0.0080593127683515
 172     0.012180395669251
 173    -0.0015749742618013
 174    -0.0032356735170564
 175    -0.0011192910351942
 176    -0.00069011327009004
 177    0.0029847338119743
 178     0.025870855265528
 179     0.012268307864178
 180    0.0010574671300197
 181    0.0011356919703893
 182    -0.00097284403345542
 183     -0.01120088406842
 184    -0.0046322706856119
 185    8.575481864779e-05
 186    -0.0012074197878424
 187    -0.00022799096654496
 188    -0.015342071063376
 189    -0.0083731444724994
 190    -0.0011303876870496
 191    0.00082192600422896
 192    0.00058924498651349
 193    2.7209152249231e-05
 194    6.880287007151e-05
 195    -8.801395035993e-06
 196    0.0014840586201719
 197    -0.00027575221923517
 198    0.0016594340280788
 199    -0.00093219161489435
 200    0.00016375718616286
 201    -0.00088044922814919
 202    0.00023009055770619
 203    0.00036276880706618
 204    5.5236478506381e-05
 205    8.6222222773355e-05
 206    -0.00028363712476907
 207    0.00041917014092447
 208    0.00027854615315641
 209    -0.00030779435342001
 210    -0.000177323984859
 211    -3.2887133486955e-05
 212    0.00044658612782805
 213    0.00026169863194974
 214    0.00011081568158509
 215    0.00023267546415898
 216    -0.00024446736040268
 217    -0.00090660000269345
 218    -0.00026173925628632
 219    0.00019657963831533
 220    -7.3831404292156e-05
 221    0.00025069193769267
 222    5.2240277695497e-05
 223    0.00017123078843277
 224    -0.00044291551494319
 225    2.8750631976905e-06
 226    0.00015646832970456
 227    0.00020080755258043
 228    7.6551869972393e-05
 229    -3.2543226407622e-05
 230    -0.00019160171716799
 231    -4.85884285003e-06
 232    2.0686469996946e-05
 233    -1.0442127252274e-05
 234    -1.5071090306624e-05
 235    -1.8079853254411e-06
 236    0.00013025959641993
 237    0.00065910235251958
 238    -4.7207955494812e-05
 239    3.1519586079598e-05
 240    2.4058511583898e-05
 241    4.3971010588729e-05
 242    0.00031198646228673
 243    -5.8379071977005e-06
 244    -9.3317530709812e-06
 245    4.2865606975587e-05
 246    -7.2200962556777e-05
 247    -0.00013495079774955
 248    1.8482195295641e-06
 249    -9.1140867193286e-06
 250    -9.9885386541785e-06
 251    -3.1232683383698e-05
 252    -0.00012203189617116
 253    0.00048230408444557
 254    -1.6007688612678e-06
 255    -0.00019495878491248
 256    -1.0660129747026e-05
 257    0.00016612384466896
 258    0.00010120752009363
 259    0.00015640575490098
 260    1.7764752840037e-05
 261    1.1296538866475e-05
 262    1.3402935181049e-05
 263    -1.2163572224858e-05
 264    -3.7941713076781e-06
 265    1.7786117744438e-05
 266    9.9610226945719e-05
 267    -9.6393236165388e-06
 268    1.7649168825039e-05
 269    8.5154996544432e-06
 270    -0.00011852007311984
 271    -0.00063765928389297
 272    1.8354085379057e-05
 273    -3.5258895062478e-05
 274    -6.0514139627981e-05
 275    -1.0472434373781e-05
 276    -0.00034931793246399
 277    -2.0604919160304e-05
 278    -2.2760364524598e-05
 279    -1.7311297307369e-05
 280    -3.3570331753666e-05
 281    -0.00012758834203387
 282    0.00048093320336498
 283    0.00015993407692076
 284    -2.317578436792e-05
 285    -0.00010247119229866
 286    1.1570886827631e-05
 287    -4.6948205439023e-05
 288    0.00023954769431056
 289    2.0421998812523e-05
 290    3.1384961609813e-06
 291    1.7090590310428e-05
 292    7.9517095913895e-06
 293    -3.4189367836783e-06
 294    1.9750855884782e-05
 295    0.00010710835427056
 296    -1.2402896924047e-05
 297    1.3693234809871e-05
 298    9.921983283579e-06
 299    -9.4734890195597e-06
 300    -0.00039967972264824
 301    1.1925294164322e-05
 302    1.0239687598054e-05
 303    -3.431738066917e-05
 304    -0.00012025807209308
 305    -0.00060946150199434
 306    3.0114424247303e-06
 307    -4.6010917699002e-05
 308    -5.0962326400515e-05
 309    5.6183404686316e-05
 310    0.00018326022403777
 311    -0.00046389393967918
 312    -7.0465996774043e-05
 313    0.00010616561978242
 314    0.00024442843215664
 315    -8.6033350771217e-07
 316    -0.00016076641453465
 317    -0.0001219466385907
 318    3.1071587490757e-06
 319    -1.1469500452402e-07
 320    -1.030353875429e-05
 321    2.4205409116391e-05
 322    -2.0400716212753e-07
 323    -6.9726618327608e-05
 324    -0.00017544268459054
 325    2.6469970621938e-06
 326    -3.3885162940215e-06
 327    -1.1590094933956e-05
 328    4.3631736744859e-05
 329     0.000426232216753
 330    3.0528498300811e-05
 331    2.7584807601855e-05
 332    3.7400314411506e-05
 333    0.00014460730036692
 334    0.00063651485325114
 335    -2.4253820155063e-05
 336    3.726586801737e-05
 337    6.0625796506066e-06