[Molden Format]
made by pyscf v[2.1.1]
[Atoms] (AU)
Cr   1   24     1.56143912275337    -2.46507591990239    -1.82404491365355
Cr   2   24    -1.56139565905251     2.46513072196000     1.82399011159594
O   3   8     0.00002078698737     0.00002834589187    -0.00002645616574
N   4   7     5.12832174930954    -1.10581670549011    -0.60767356069801
H   5   1     6.65216855026694    -1.66292686427314    -1.66487895135981
H   6   1     5.63710405218294    -1.59213394419468     1.18765885421890
H   7   1     5.20084187906585     0.81566059741989    -0.65509245834172
N   8   7     1.71230729763415    -0.02251608677419    -4.99594076510539
H   9   1     0.29795878723855     1.27247165241550    -4.90823668593820
H   10   1     1.50271021425414    -0.85583806455427    -6.73026148236459
H   11   1     3.34039895052705     0.99863710888315    -5.18656310846864
N   12   7     1.41057094787259    -4.90763575303059     1.34785282752440
H   13   1     1.64193389675534    -6.79355407945465     0.97314659318890
H   14   1    -0.29048681014202    -4.81040367474334     2.24006056107205
H   15   1     2.72468082571676    -4.56691435331926     2.71738081369757
N   16   7    -2.00544350380280    -3.82433513431467    -3.04041437688297
H   17   1    -2.87205678671934    -5.05516478184926    -1.83221042023780
H   18   1    -2.03637832046193    -4.76397121413665    -4.73247136936628
H   19   1    -3.24475802163669    -2.37551046050250    -3.28123540501917
N   20   7     3.37923471211299    -5.33493873459111    -3.94755661599306
H   21   1     4.17102617885350    -4.76109883042731    -5.61685374703210
H   22   1     2.26176595533881    -6.82326057413281    -4.47610923358166
H   23   1     4.85383336053810    -6.19899521806112    -3.03922195969837
N   24   7    -5.12827828560868     1.10587339727385     0.60762064836653
H   25   1    -5.15408816501799    -0.81544705836782     0.54662784797006
H   26   1    -5.69743166898356     1.68113626520945    -1.14337690194197
H   27   1    -6.63528195761783     1.56841410187914     1.73267665553083
N   28   7    -1.71226383393328     0.02257088883181     4.99588785277390
H   29   1    -1.62991523860311     0.86667375415253     6.73575491620870
H   30   1    -0.22416876152653    -1.19157625647512     4.98456461383551
H   31   1    -3.28782110056328    -1.08746368536834     5.11339858210385
N   32   7     2.00548696750367     3.82438993637228     3.04035957482536
H   33   1     2.05186651577887     4.68410571893416     4.77402266739321
H   34   1     2.83712330958063     5.12208376337235     1.87805706574587
H   35   1     3.26582090902109     2.38241174030942     3.19051154350492
N   36   7    -1.41052748417173     4.90769055508820    -1.34790762958202
H   37   1    -1.75003190025884     6.78104976168840    -0.99229329828299
H   38   1    -2.65834387984003     4.49309409198925    -2.75785496783350
H   39   1     0.32278033988471     4.89894112313146    -2.18344058692784
N   40   7    -3.37919124841212     5.33499353664873     3.94750181393545
H   41   1    -2.26357064378777     6.83195331430581     4.45515784003860
H   42   1    -4.15358022727151     4.76963661305810     5.62761006813313
H   43   1    -4.86681766873998     6.18449345978121     3.04686590187224
[GTO]
1 0
 s    6 1.00
          51528.086349  0.0017695545768669
          7737.2103487   0.013556436258096
           1760.374847   0.067162645785071
          496.87706544    0.23295905918518
          161.46520598    0.47040576982722
          55.466352268    0.35733072606876
 s    3 1.00
          107.54732999   -0.10605255446629
          12.408671897    0.62543981484169
          5.0423628826    0.44878820793655
 s    3 1.00
          8.5461640165   -0.21819012081133
          1.3900441221    0.70422525667731
         0.56066602876    0.42488555412558
 s    1 1.00
        0.071483705972                   1
 s    1 1.00
        0.028250687604                   1
 p    5 1.00
          640.48536096  0.0093555063746755
          150.69711194   0.068993338492216
          47.503755296     0.2634118959318
          16.934120165    0.51034501651775
           6.240968059    0.33195512953954
 p    3 1.00
          3.0885463206    0.32917682676976
          1.1791047769    0.55491385190365
         0.43369774432    0.23818412855984
 p    1 1.00
              0.120675                   1
 d    4 1.00
          27.559479426   0.036950140313562
          7.4687020327    0.18821519783039
          2.4345903574    0.44641244239929
         0.78244754808     0.5681617303244
 d    1 1.00
         0.21995774311                   1
 f    1 1.00
                 1.147                   1

2 0
 s    6 1.00
          51528.086349  0.0017695545768669
          7737.2103487   0.013556436258096
           1760.374847   0.067162645785071
          496.87706544    0.23295905918518
          161.46520598    0.47040576982722
          55.466352268    0.35733072606876
 s    3 1.00
          107.54732999   -0.10605255446629
          12.408671897    0.62543981484169
          5.0423628826    0.44878820793655
 s    3 1.00
          8.5461640165   -0.21819012081133
          1.3900441221    0.70422525667731
         0.56066602876    0.42488555412558
 s    1 1.00
        0.071483705972                   1
 s    1 1.00
        0.028250687604                   1
 p    5 1.00
          640.48536096  0.0093555063746755
          150.69711194   0.068993338492216
          47.503755296     0.2634118959318
          16.934120165    0.51034501651775
           6.240968059    0.33195512953954
 p    3 1.00
          3.0885463206    0.32917682676976
          1.1791047769    0.55491385190365
         0.43369774432    0.23818412855984
 p    1 1.00
              0.120675                   1
 d    4 1.00
          27.559479426   0.036950140313562
          7.4687020327    0.18821519783039
          2.4345903574    0.44641244239929
         0.78244754808     0.5681617303244
 d    1 1.00
         0.21995774311                   1
 f    1 1.00
                 1.147                   1

3 0
 s    5 1.00
          2266.1767785  -0.0053893503921743
          340.87010191   -0.04023472138896
          77.363135167   -0.18008184205526
           21.47964494   -0.46828857657651
          6.6589433124   -0.44692617160187
 s    1 1.00
         0.80975975668                   1
 s    1 1.00
         0.25530772234                   1
 p    3 1.00
          17.721504317   0.062630248763161
           3.863550544    0.33331138482352
          1.0480920883    0.74148638308122
 p    1 1.00
         0.27641544411                   1
 d    1 1.00
                   1.2                   1

4 0
 s    5 1.00
          1712.8415853  -0.0054477995804909
          257.64812677  -0.040627174632423
          58.458245853   -0.18111962250584
          16.198367905   -0.46843975563173
          5.0052600809   -0.44616846289231
 s    1 1.00
         0.58731856571                   1
 s    1 1.00
         0.18764592253                   1
 p    3 1.00
          13.571470233  -0.058848116969522
          2.9257372874   -0.32024624762471
         0.79927750754   -0.75328226520436
 p    1 1.00
         0.21954348034                   1
 d    1 1.00
                     1                   1

5 0
 s    3 1.00
             13.010701   0.033485484812989
             1.9622572    0.23472187088125
            0.44453796    0.81377028525955
 s    1 1.00
            0.12194962                   1
 p    1 1.00
                   0.8                   1

6 0
 s    3 1.00
             13.010701   0.033485484812989
             1.9622572    0.23472187088125
            0.44453796    0.81377028525955
 s    1 1.00
            0.12194962                   1
 p    1 1.00
                   0.8                   1

7 0
 s    3 1.00
             13.010701   0.033485484812989
             1.9622572    0.23472187088125
            0.44453796    0.81377028525955
 s    1 1.00
            0.12194962                   1
 p    1 1.00
                   0.8                   1

8 0
 s    5 1.00
          1712.8415853  -0.0054477995804909
          257.64812677  -0.040627174632423
          58.458245853   -0.18111962250584
          16.198367905   -0.46843975563173
          5.0052600809   -0.44616846289231
 s    1 1.00
         0.58731856571                   1
 s    1 1.00
         0.18764592253                   1
 p    3 1.00
          13.571470233  -0.058848116969522
          2.9257372874   -0.32024624762471
         0.79927750754   -0.75328226520436
 p    1 1.00
         0.21954348034                   1
 d    1 1.00
                     1                   1

9 0
 s    3 1.00
             13.010701   0.033485484812989
             1.9622572    0.23472187088125
            0.44453796    0.81377028525955
 s    1 1.00
            0.12194962                   1
 p    1 1.00
                   0.8                   1

10 0
 s    3 1.00
             13.010701   0.033485484812989
             1.9622572    0.23472187088125
            0.44453796    0.81377028525955
 s    1 1.00
            0.12194962                   1
 p    1 1.00
                   0.8                   1

11 0
 s    3 1.00
             13.010701   0.033485484812989
             1.9622572    0.23472187088125
            0.44453796    0.81377028525955
 s    1 1.00
            0.12194962                   1
 p    1 1.00
                   0.8                   1

12 0
 s    5 1.00
          1712.8415853  -0.0054477995804909
          257.64812677  -0.040627174632423
          58.458245853   -0.18111962250584
          16.198367905   -0.46843975563173
          5.0052600809   -0.44616846289231
 s    1 1.00
         0.58731856571                   1
 s    1 1.00
         0.18764592253                   1
 p    3 1.00
          13.571470233  -0.058848116969522
          2.9257372874   -0.32024624762471
         0.79927750754   -0.75328226520436
 p    1 1.00
         0.21954348034                   1
 d    1 1.00
                     1                   1

13 0
 s    3 1.00
             13.010701   0.033485484812989
             1.9622572    0.23472187088125
            0.44453796    0.81377028525955
 s    1 1.00
            0.12194962                   1
 p    1 1.00
                   0.8                   1

14 0
 s    3 1.00
             13.010701   0.033485484812989
             1.9622572    0.23472187088125
            0.44453796    0.81377028525955
 s    1 1.00
            0.12194962                   1
 p    1 1.00
                   0.8                   1

15 0
 s    3 1.00
             13.010701   0.033485484812989
             1.9622572    0.23472187088125
            0.44453796    0.81377028525955
 s    1 1.00
            0.12194962                   1
 p    1 1.00
                   0.8                   1

16 0
 s    5 1.00
          1712.8415853  -0.0054477995804909
          257.64812677  -0.040627174632423
          58.458245853   -0.18111962250584
          16.198367905   -0.46843975563173
          5.0052600809   -0.44616846289231
 s    1 1.00
         0.58731856571                   1
 s    1 1.00
         0.18764592253                   1
 p    3 1.00
          13.571470233  -0.058848116969522
          2.9257372874   -0.32024624762471
         0.79927750754   -0.75328226520436
 p    1 1.00
         0.21954348034                   1
 d    1 1.00
                     1                   1

17 0
 s    3 1.00
             13.010701   0.033485484812989
             1.9622572    0.23472187088125
            0.44453796    0.81377028525955
 s    1 1.00
            0.12194962                   1
 p    1 1.00
                   0.8                   1

18 0
 s    3 1.00
             13.010701   0.033485484812989
             1.9622572    0.23472187088125
            0.44453796    0.81377028525955
 s    1 1.00
            0.12194962                   1
 p    1 1.00
                   0.8                   1

19 0
 s    3 1.00
             13.010701   0.033485484812989
             1.9622572    0.23472187088125
            0.44453796    0.81377028525955
 s    1 1.00
            0.12194962                   1
 p    1 1.00
                   0.8                   1

20 0
 s    5 1.00
          1712.8415853  -0.0054477995804909
          257.64812677  -0.040627174632423
          58.458245853   -0.18111962250584
          16.198367905   -0.46843975563173
          5.0052600809   -0.44616846289231
 s    1 1.00
         0.58731856571                   1
 s    1 1.00
         0.18764592253                   1
 p    3 1.00
          13.571470233  -0.058848116969522
          2.9257372874   -0.32024624762471
         0.79927750754   -0.75328226520436
 p    1 1.00
         0.21954348034                   1
 d    1 1.00
                     1                   1

21 0
 s    3 1.00
             13.010701   0.033485484812989
             1.9622572    0.23472187088125
            0.44453796    0.81377028525955
 s    1 1.00
            0.12194962                   1
 p    1 1.00
                   0.8                   1

22 0
 s    3 1.00
             13.010701   0.033485484812989
             1.9622572    0.23472187088125
            0.44453796    0.81377028525955
 s    1 1.00
            0.12194962                   1
 p    1 1.00
                   0.8                   1

23 0
 s    3 1.00
             13.010701   0.033485484812989
             1.9622572    0.23472187088125
            0.44453796    0.81377028525955
 s    1 1.00
            0.12194962                   1
 p    1 1.00
                   0.8                   1

24 0
 s    5 1.00
          1712.8415853  -0.0054477995804909
          257.64812677  -0.040627174632423
          58.458245853   -0.18111962250584
          16.198367905   -0.46843975563173
          5.0052600809   -0.44616846289231
 s    1 1.00
         0.58731856571                   1
 s    1 1.00
         0.18764592253                   1
 p    3 1.00
          13.571470233  -0.058848116969522
          2.9257372874   -0.32024624762471
         0.79927750754   -0.75328226520436
 p    1 1.00
         0.21954348034                   1
 d    1 1.00
                     1                   1

25 0
 s    3 1.00
             13.010701   0.033485484812989
             1.9622572    0.23472187088125
            0.44453796    0.81377028525955
 s    1 1.00
            0.12194962                   1
 p    1 1.00
                   0.8                   1

26 0
 s    3 1.00
             13.010701   0.033485484812989
             1.9622572    0.23472187088125
            0.44453796    0.81377028525955
 s    1 1.00
            0.12194962                   1
 p    1 1.00
                   0.8                   1

27 0
 s    3 1.00
             13.010701   0.033485484812989
             1.9622572    0.23472187088125
            0.44453796    0.81377028525955
 s    1 1.00
            0.12194962                   1
 p    1 1.00
                   0.8                   1

28 0
 s    5 1.00
          1712.8415853  -0.0054477995804909
          257.64812677  -0.040627174632423
          58.458245853   -0.18111962250584
          16.198367905   -0.46843975563173
          5.0052600809   -0.44616846289231
 s    1 1.00
         0.58731856571                   1
 s    1 1.00
         0.18764592253                   1
 p    3 1.00
          13.571470233  -0.058848116969522
          2.9257372874   -0.32024624762471
         0.79927750754   -0.75328226520436
 p    1 1.00
         0.21954348034                   1
 d    1 1.00
                     1                   1

29 0
 s    3 1.00
             13.010701   0.033485484812989
             1.9622572    0.23472187088125
            0.44453796    0.81377028525955
 s    1 1.00
            0.12194962                   1
 p    1 1.00
                   0.8                   1

30 0
 s    3 1.00
             13.010701   0.033485484812989
             1.9622572    0.23472187088125
            0.44453796    0.81377028525955
 s    1 1.00
            0.12194962                   1
 p    1 1.00
                   0.8                   1

31 0
 s    3 1.00
             13.010701   0.033485484812989
             1.9622572    0.23472187088125
            0.44453796    0.81377028525955
 s    1 1.00
            0.12194962                   1
 p    1 1.00
                   0.8                   1

32 0
 s    5 1.00
          1712.8415853  -0.0054477995804909
          257.64812677  -0.040627174632423
          58.458245853   -0.18111962250584
          16.198367905   -0.46843975563173
          5.0052600809   -0.44616846289231
 s    1 1.00
         0.58731856571                   1
 s    1 1.00
         0.18764592253                   1
 p    3 1.00
          13.571470233  -0.058848116969522
          2.9257372874   -0.32024624762471
         0.79927750754   -0.75328226520436
 p    1 1.00
         0.21954348034                   1
 d    1 1.00
                     1                   1

33 0
 s    3 1.00
             13.010701   0.033485484812989
             1.9622572    0.23472187088125
            0.44453796    0.81377028525955
 s    1 1.00
            0.12194962                   1
 p    1 1.00
                   0.8                   1

34 0
 s    3 1.00
             13.010701   0.033485484812989
             1.9622572    0.23472187088125
            0.44453796    0.81377028525955
 s    1 1.00
            0.12194962                   1
 p    1 1.00
                   0.8                   1

35 0
 s    3 1.00
             13.010701   0.033485484812989
             1.9622572    0.23472187088125
            0.44453796    0.81377028525955
 s    1 1.00
            0.12194962                   1
 p    1 1.00
                   0.8                   1

36 0
 s    5 1.00
          1712.8415853  -0.0054477995804909
          257.64812677  -0.040627174632423
          58.458245853   -0.18111962250584
          16.198367905   -0.46843975563173
          5.0052600809   -0.44616846289231
 s    1 1.00
         0.58731856571                   1
 s    1 1.00
         0.18764592253                   1
 p    3 1.00
          13.571470233  -0.058848116969522
          2.9257372874   -0.32024624762471
         0.79927750754   -0.75328226520436
 p    1 1.00
         0.21954348034                   1
 d    1 1.00
                     1                   1

37 0
 s    3 1.00
             13.010701   0.033485484812989
             1.9622572    0.23472187088125
            0.44453796    0.81377028525955
 s    1 1.00
            0.12194962                   1
 p    1 1.00
                   0.8                   1

38 0
 s    3 1.00
             13.010701   0.033485484812989
             1.9622572    0.23472187088125
            0.44453796    0.81377028525955
 s    1 1.00
            0.12194962                   1
 p    1 1.00
                   0.8                   1

39 0
 s    3 1.00
             13.010701   0.033485484812989
             1.9622572    0.23472187088125
            0.44453796    0.81377028525955
 s    1 1.00
            0.12194962                   1
 p    1 1.00
                   0.8                   1

40 0
 s    5 1.00
          1712.8415853  -0.0054477995804909
          257.64812677  -0.040627174632423
          58.458245853   -0.18111962250584
          16.198367905   -0.46843975563173
          5.0052600809   -0.44616846289231
 s    1 1.00
         0.58731856571                   1
 s    1 1.00
         0.18764592253                   1
 p    3 1.00
          13.571470233  -0.058848116969522
          2.9257372874   -0.32024624762471
         0.79927750754   -0.75328226520436
 p    1 1.00
         0.21954348034                   1
 d    1 1.00
                     1                   1

41 0
 s    3 1.00
             13.010701   0.033485484812989
             1.9622572    0.23472187088125
            0.44453796    0.81377028525955
 s    1 1.00
            0.12194962                   1
 p    1 1.00
                   0.8                   1

42 0
 s    3 1.00
             13.010701   0.033485484812989
             1.9622572    0.23472187088125
            0.44453796    0.81377028525955
 s    1 1.00
            0.12194962                   1
 p    1 1.00
                   0.8                   1

43 0
 s    3 1.00
             13.010701   0.033485484812989
             1.9622572    0.23472187088125
            0.44453796    0.81377028525955
 s    1 1.00
            0.12194962                   1
 p    1 1.00
                   0.8                   1

[5d]
[7f]
[9g]

[MO]
 Sym= A
 Ene=               0
 Spin= Alpha
 Occup=    1.00000
   1     0.015294291814565
   2    -0.027050081432982
   3      0.29601057292429
   4     0.068822905139288
   5    -0.015589449601019
   6     0.024432863962914
   7    -0.038759666672491
   8    -0.029015962948441
   9     -0.13699445819926
  10      0.21702604466569
  11      0.16191972120363
  12    0.0046596981641236
  13    -0.0082588148620087
  14    -0.0073449188819349
  15    -0.0021426185624812
  16    -0.0096023220522655
  17     0.015001885685605
  18    -0.0061822999677116
  19    -0.013308809631018
  20    0.00047558517977003
  21    0.0053769485164969
  22    -0.0087583531409359
  23    0.0034860254750148
  24    0.0067932506282207
  25    -0.00098344539136653
  26    -0.00024248866954865
  27    0.00037640073473267
  28    -0.0007215747254144
  29    -0.0015351026540112
  30    0.0011205675182434
  31    0.00014898966708426
  32    -0.015294894146875
  33     0.027051561514295
  34     -0.29601955576103
  35    -0.068817096931853
  36     0.015627088154811
  37     0.024434237381631
  38    -0.038759167365533
  39    -0.029015315924863
  40      -0.1369992447032
  41      0.21702396418827
  42      0.16191825639434
  43     0.004685059938801
  44    -0.0082314707828725
  45    -0.0073481427450552
  46    0.0021891652118081
  47    0.0095784036802469
  48    -0.015064035060507
  49    0.0061479718704487
  50     0.013289040288757
  51    -0.00043906695523111
  52    -0.0054229024636288
  53    0.0087138989896504
  54    -0.0034751595134733
  55    -0.0068056220484419
  56    -0.00098352493687824
  57    -0.00024238171614055
  58    0.00037748083558693
  59    -0.0007223311999456
  60    -0.0015347566320407
  61     0.001120118134614
  62    0.00014980364391202
  63    -1.7956536371916e-06
  64    -5.4326711684298e-06
  65    5.6116403571451e-07
  66     0.094036417115059
  67     -0.14993552084302
  68     -0.11420421715849
  69     0.091602366434712
  70     -0.14573228961947
  71      -0.1107883374858
  72     2.58982780802e-06
  73    -7.6309236544821e-07
  74    -1.2796157181828e-06
  75    -8.0147057694675e-07
  76    7.5083955923863e-08
  77     0.023585296735399
  78     0.068787690912513
  79     0.053989560817305
  80     0.075194058657711
  81    0.0047358770681483
  82    0.0071654275351462
  83    -0.061162096459645
  84    -0.007008862511782
  85    -0.0074639536439672
  86    -0.00060628061514625
  87    0.00094276811750189
  88    -0.00039370440448678
  89    -0.00012344049036889
  90    0.00056247428096528
  91    -0.016609884468831
  92    -0.0066668360716583
  93    3.3046517107511e-05
  94    -0.00031167595604392
  95    -0.0007600633757842
  96    0.0046853438327621
  97    -0.0036902892453275
  98    -0.0020983449255223
  99    -0.0002033351360295
 100    -0.0010892032152474
 101     0.017616892059168
 102    -0.0028774350481174
 103    -0.0023052964649267
 104    -0.0027164517658202
 105    -0.00060721683229913
 106     0.023192704504603
 107     0.067630016703772
 108     0.052260901032429
 109     0.014644649080829
 110     0.024038144105844
 111    -0.069487143042298
 112    -0.010015508546373
 113    -0.022173826882148
 114     0.055715857402389
 115    -9.283653169006e-05
 116    -0.00039158921368144
 117    -0.0010227933291583
 118    0.00011659639199428
 119    -0.00061290196937873
 120     0.020478923926968
 121    -0.0024326641637787
 122    0.0015299544745236
 123    -0.0030604801293604
 124    0.0018887409024385
 125    -0.014148282773559
 126    -0.0064479165969114
 127    -0.00038194645622091
 128    -0.00077888635883347
 129    1.6989415796122e-05
 130    -0.00064393743218949
 131    -0.0043633842416876
 132    -0.00042437680372495
 133    -0.00087963244614607
 134    0.0015337438173904
 135     0.023644625590524
 136     0.068924695305815
 137       0.0542298860007
 138    0.0096363818279383
 139    -0.062612353924407
 140     0.041807554985745
 141    -0.0059188441773947
 142      0.04985516006503
 143    -0.036831773698501
 144    0.00030898801100381
 145    -0.00013572562279148
 146    -0.0010690901533236
 147    0.00069554355215077
 148    7.5238026916316e-05
 149    -0.016684001221207
 150    -0.0067153449993438
 151    -5.5400466149267e-05
 152    -0.000416664468999
 153    -0.00070331274861176
 154     0.017416584670342
 155    -0.0028281450106753
 156    0.0017749432747388
 157    0.0014819342326896
 158    -0.0027567257171909
 159    0.0048593874707015
 160    -0.0036987096933143
 161    -0.0006269550762496
 162    0.0013254247912973
 163    -0.0018948778650782
 164     0.023222304714539
 165     0.067844067857587
 166     0.052112794705527
 167    -0.050624621506244
 168    -0.042659070314748
 169    -0.035102952120057
 170     0.043398590358969
 171      0.03229675470748
 172     0.027733045448078
 173    -0.00099734462720463
 174    0.00064352889248092
 175    -0.00038349621002537
 176    0.00022089822978363
 177    0.00014211233943215
 178    0.0023069792618428
 179    -0.0041042705534367
 180    0.0016807501050964
 181    0.0012122820622416
 182    0.00042553366892994
 183    -0.015474622451104
 184    -0.0066157836860426
 185    0.0006068530219621
 186    7.4635421526415e-05
 187    -0.0005946567823424
 188     0.018870180453523
 189    -0.0024096662078334
 190    0.0035680355046476
 191    -0.00069178716589896
 192    0.0010387421117274
 193    -0.0064839980125695
 194    -0.015862456678793
 195    -0.028881565961275
 196    -0.012903396316752
 197      0.02029789778522
 198     0.014861506344741
 199     0.011471155937369
 200    -0.017887152683964
 201    -0.013134479849743
 202    -7.6663067083841e-05
 203    -0.00040140426537072
 204    0.00063322978634084
 205    -0.00025574874874508
 206    -0.0005442974453349
 207    0.0039067148104709
 208    0.0016603520277403
 209    0.00043276369824001
 210    -0.0012856376641403
 211    -0.00019332940371423
 212    0.0040428734645594
 213    0.0017207354129493
 214     0.001107659310874
 215    -0.00056654590714221
 216    -0.00057265759488458
 217    0.0037884418016708
 218    0.0014905290263063
 219    0.00018700196437862
 220    -0.00078783136127238
 221    -0.0010640596354896
 222    -0.023607043264196
 223    -0.068799569443075
 224    -0.054046965421796
 225     0.075296641659882
 226     0.004707668824886
 227    0.0071158293134426
 228    -0.061254715476311
 229    -0.0069975915898438
 230    -0.0074789507959688
 231    0.00073012930411967
 232    -0.00094023587165581
 233    0.00027444129774972
 234    0.00016449052561096
 235    -0.00047221283715274
 236    -0.018605533502889
 237    0.0028417857724687
 238    -0.0022651074502496
 239    -0.0028322730015971
 240    -0.00075041896313794
 241    -0.0032866071055974
 242    0.0037003763870348
 243    -0.0020334166718307
 244    -0.00018395346805607
 245    -0.00092784431572419
 246     0.016190606822962
 247    0.0066499193518265
 248    -2.7321353070641e-05
 249    -0.00024518416403559
 250    -0.00078311648004165
 251    -0.023180828470427
 252     -0.06766678842206
 253    -0.052082662502789
 254     0.014625994776024
 255     0.024057879875859
 256    -0.069375887623172
 257    -0.009952749329531
 258    -0.022168171735747
 259     0.055645762993288
 260    0.00013389880110606
 261    0.0002905066082608
 262    0.0010998668841198
 263    -0.00022517679295733
 264    0.0004897795731139
 265     0.014817560343192
 266    0.0065378802956656
 267    -0.00031918825424213
 268    -0.00079261836014228
 269    -6.9996329734831e-05
 270    -0.019712779237945
 271    0.0023620039266357
 272    0.0015625121487371
 273    -0.0029029679297971
 274    0.0019904386230881
 275    -0.00077082750471157
 276      0.00422508976608
 277    -0.00053698032163477
 278     -0.00100799377628
 279    0.0015841627431373
 280    -0.023236676698821
 281    -0.067831615046829
 282    -0.052217041115359
 283    -0.050632467173761
 284    -0.042716321251337
 285    -0.035159332222165
 286      0.04344420719922
 287     0.032361842430037
 288     0.027745765366016
 289    0.0010569077608946
 290    -0.00062119846565824
 291    0.00026290421726009
 292    -0.00020488549574836
 293    -8.1275382594809e-05
 294     0.015083190086225
 295    0.0065709074038621
 296    0.00061455238545971
 297    0.00014239165650661
 298    -0.00057839145768869
 299    -0.0012916548676455
 300    0.0041589354020067
 301    0.0015880885072321
 302    0.0011468979793131
 303    0.00048303096132083
 304    -0.019519631000369
 305    0.0023829396229496
 306    0.0036451032776569
 307    -0.00073362646006669
 308    0.00093131148406498
 309    -0.023619482050067
 310    -0.068893993841055
 311    -0.054198393234923
 312    0.0096048648736971
 313     -0.06249533291703
 314     0.041799218191282
 315    -0.0059358333187935
 316     0.049779311614925
 317    -0.036778856640148
 318    -0.00032495197562411
 319    2.7890970515351e-05
 320    0.0010590772333316
 321    -0.0006824380526653
 322    -0.00022414500657173
 323     0.017004424651699
 324    0.0066899764812606
 325    2.4746888883074e-05
 326    -0.00044879432051113
 327    -0.0006880400510784
 328    -0.0061881958695946
 329    0.0036979358186206
 330    -0.0006765332083671
 331    0.0012928688590677
 332    -0.0020521415251951
 333    -0.016358861701965
 334    0.0029042911553929
 335    0.0017074531121253
 336    0.0015763114003803
 337    -0.0026140433327738
 338    0.0064806854795276
 339     0.015853757579938
 340     0.028876426310487
 341    -0.012895743273397
 342     0.020291938013139
 343     0.014864316034735