[Molden Format]
made by pyscf v[2.1.1]
[Atoms] (AU)
Cr   1   24     1.56143912275337    -2.46507591990239    -1.82404491365355
Cr   2   24    -1.56139565905251     2.46513072196000     1.82399011159594
O   3   8     0.00002078698737     0.00002834589187    -0.00002645616574
N   4   7     5.12832174930954    -1.10581670549011    -0.60767356069801
H   5   1     6.65216855026694    -1.66292686427314    -1.66487895135981
H   6   1     5.63710405218294    -1.59213394419468     1.18765885421890
H   7   1     5.20084187906585     0.81566059741989    -0.65509245834172
N   8   7     1.71230729763415    -0.02251608677419    -4.99594076510539
H   9   1     0.29795878723855     1.27247165241550    -4.90823668593820
H   10   1     1.50271021425414    -0.85583806455427    -6.73026148236459
H   11   1     3.34039895052705     0.99863710888315    -5.18656310846864
N   12   7     1.41057094787259    -4.90763575303059     1.34785282752440
H   13   1     1.64193389675534    -6.79355407945465     0.97314659318890
H   14   1    -0.29048681014202    -4.81040367474334     2.24006056107205
H   15   1     2.72468082571676    -4.56691435331926     2.71738081369757
N   16   7    -2.00544350380280    -3.82433513431467    -3.04041437688297
H   17   1    -2.87205678671934    -5.05516478184926    -1.83221042023780
H   18   1    -2.03637832046193    -4.76397121413665    -4.73247136936628
H   19   1    -3.24475802163669    -2.37551046050250    -3.28123540501917
N   20   7     3.37923471211299    -5.33493873459111    -3.94755661599306
H   21   1     4.17102617885350    -4.76109883042731    -5.61685374703210
H   22   1     2.26176595533881    -6.82326057413281    -4.47610923358166
H   23   1     4.85383336053810    -6.19899521806112    -3.03922195969837
N   24   7    -5.12827828560868     1.10587339727385     0.60762064836653
H   25   1    -5.15408816501799    -0.81544705836782     0.54662784797006
H   26   1    -5.69743166898356     1.68113626520945    -1.14337690194197
H   27   1    -6.63528195761783     1.56841410187914     1.73267665553083
N   28   7    -1.71226383393328     0.02257088883181     4.99588785277390
H   29   1    -1.62991523860311     0.86667375415253     6.73575491620870
H   30   1    -0.22416876152653    -1.19157625647512     4.98456461383551
H   31   1    -3.28782110056328    -1.08746368536834     5.11339858210385
N   32   7     2.00548696750367     3.82438993637228     3.04035957482536
H   33   1     2.05186651577887     4.68410571893416     4.77402266739321
H   34   1     2.83712330958063     5.12208376337235     1.87805706574587
H   35   1     3.26582090902109     2.38241174030942     3.19051154350492
N   36   7    -1.41052748417173     4.90769055508820    -1.34790762958202
H   37   1    -1.75003190025884     6.78104976168840    -0.99229329828299
H   38   1    -2.65834387984003     4.49309409198925    -2.75785496783350
H   39   1     0.32278033988471     4.89894112313146    -2.18344058692784
N   40   7    -3.37919124841212     5.33499353664873     3.94750181393545
H   41   1    -2.26357064378777     6.83195331430581     4.45515784003860
H   42   1    -4.15358022727151     4.76963661305810     5.62761006813313
H   43   1    -4.86681766873998     6.18449345978121     3.04686590187224
[GTO]
1 0
 s    6 1.00
          51528.086349  0.0017695545768669
          7737.2103487   0.013556436258096
           1760.374847   0.067162645785071
          496.87706544    0.23295905918518
          161.46520598    0.47040576982722
          55.466352268    0.35733072606876
 s    3 1.00
          107.54732999   -0.10605255446629
          12.408671897    0.62543981484169
          5.0423628826    0.44878820793655
 s    3 1.00
          8.5461640165   -0.21819012081133
          1.3900441221    0.70422525667731
         0.56066602876    0.42488555412558
 s    1 1.00
        0.071483705972                   1
 s    1 1.00
        0.028250687604                   1
 p    5 1.00
          640.48536096  0.0093555063746755
          150.69711194   0.068993338492216
          47.503755296     0.2634118959318
          16.934120165    0.51034501651775
           6.240968059    0.33195512953954
 p    3 1.00
          3.0885463206    0.32917682676976
          1.1791047769    0.55491385190365
         0.43369774432    0.23818412855984
 p    1 1.00
              0.120675                   1
 d    4 1.00
          27.559479426   0.036950140313562
          7.4687020327    0.18821519783039
          2.4345903574    0.44641244239929
         0.78244754808     0.5681617303244
 d    1 1.00
         0.21995774311                   1
 f    1 1.00
                 1.147                   1

2 0
 s    6 1.00
          51528.086349  0.0017695545768669
          7737.2103487   0.013556436258096
           1760.374847   0.067162645785071
          496.87706544    0.23295905918518
          161.46520598    0.47040576982722
          55.466352268    0.35733072606876
 s    3 1.00
          107.54732999   -0.10605255446629
          12.408671897    0.62543981484169
          5.0423628826    0.44878820793655
 s    3 1.00
          8.5461640165   -0.21819012081133
          1.3900441221    0.70422525667731
         0.56066602876    0.42488555412558
 s    1 1.00
        0.071483705972                   1
 s    1 1.00
        0.028250687604                   1
 p    5 1.00
          640.48536096  0.0093555063746755
          150.69711194   0.068993338492216
          47.503755296     0.2634118959318
          16.934120165    0.51034501651775
           6.240968059    0.33195512953954
 p    3 1.00
          3.0885463206    0.32917682676976
          1.1791047769    0.55491385190365
         0.43369774432    0.23818412855984
 p    1 1.00
              0.120675                   1
 d    4 1.00
          27.559479426   0.036950140313562
          7.4687020327    0.18821519783039
          2.4345903574    0.44641244239929
         0.78244754808     0.5681617303244
 d    1 1.00
         0.21995774311                   1
 f    1 1.00
                 1.147                   1

3 0
 s    5 1.00
          2266.1767785  -0.0053893503921743
          340.87010191   -0.04023472138896
          77.363135167   -0.18008184205526
           21.47964494   -0.46828857657651
          6.6589433124   -0.44692617160187
 s    1 1.00
         0.80975975668                   1
 s    1 1.00
         0.25530772234                   1
 p    3 1.00
          17.721504317   0.062630248763161
           3.863550544    0.33331138482352
          1.0480920883    0.74148638308122
 p    1 1.00
         0.27641544411                   1
 d    1 1.00
                   1.2                   1

4 0
 s    5 1.00
          1712.8415853  -0.0054477995804909
          257.64812677  -0.040627174632423
          58.458245853   -0.18111962250584
          16.198367905   -0.46843975563173
          5.0052600809   -0.44616846289231
 s    1 1.00
         0.58731856571                   1
 s    1 1.00
         0.18764592253                   1
 p    3 1.00
          13.571470233  -0.058848116969522
          2.9257372874   -0.32024624762471
         0.79927750754   -0.75328226520436
 p    1 1.00
         0.21954348034                   1
 d    1 1.00
                     1                   1

5 0
 s    3 1.00
             13.010701   0.033485484812989
             1.9622572    0.23472187088125
            0.44453796    0.81377028525955
 s    1 1.00
            0.12194962                   1
 p    1 1.00
                   0.8                   1

6 0
 s    3 1.00
             13.010701   0.033485484812989
             1.9622572    0.23472187088125
            0.44453796    0.81377028525955
 s    1 1.00
            0.12194962                   1
 p    1 1.00
                   0.8                   1

7 0
 s    3 1.00
             13.010701   0.033485484812989
             1.9622572    0.23472187088125
            0.44453796    0.81377028525955
 s    1 1.00
            0.12194962                   1
 p    1 1.00
                   0.8                   1

8 0
 s    5 1.00
          1712.8415853  -0.0054477995804909
          257.64812677  -0.040627174632423
          58.458245853   -0.18111962250584
          16.198367905   -0.46843975563173
          5.0052600809   -0.44616846289231
 s    1 1.00
         0.58731856571                   1
 s    1 1.00
         0.18764592253                   1
 p    3 1.00
          13.571470233  -0.058848116969522
          2.9257372874   -0.32024624762471
         0.79927750754   -0.75328226520436
 p    1 1.00
         0.21954348034                   1
 d    1 1.00
                     1                   1

9 0
 s    3 1.00
             13.010701   0.033485484812989
             1.9622572    0.23472187088125
            0.44453796    0.81377028525955
 s    1 1.00
            0.12194962                   1
 p    1 1.00
                   0.8                   1

10 0
 s    3 1.00
             13.010701   0.033485484812989
             1.9622572    0.23472187088125
            0.44453796    0.81377028525955
 s    1 1.00
            0.12194962                   1
 p    1 1.00
                   0.8                   1

11 0
 s    3 1.00
             13.010701   0.033485484812989
             1.9622572    0.23472187088125
            0.44453796    0.81377028525955
 s    1 1.00
            0.12194962                   1
 p    1 1.00
                   0.8                   1

12 0
 s    5 1.00
          1712.8415853  -0.0054477995804909
          257.64812677  -0.040627174632423
          58.458245853   -0.18111962250584
          16.198367905   -0.46843975563173
          5.0052600809   -0.44616846289231
 s    1 1.00
         0.58731856571                   1
 s    1 1.00
         0.18764592253                   1
 p    3 1.00
          13.571470233  -0.058848116969522
          2.9257372874   -0.32024624762471
         0.79927750754   -0.75328226520436
 p    1 1.00
         0.21954348034                   1
 d    1 1.00
                     1                   1

13 0
 s    3 1.00
             13.010701   0.033485484812989
             1.9622572    0.23472187088125
            0.44453796    0.81377028525955
 s    1 1.00
            0.12194962                   1
 p    1 1.00
                   0.8                   1

14 0
 s    3 1.00
             13.010701   0.033485484812989
             1.9622572    0.23472187088125
            0.44453796    0.81377028525955
 s    1 1.00
            0.12194962                   1
 p    1 1.00
                   0.8                   1

15 0
 s    3 1.00
             13.010701   0.033485484812989
             1.9622572    0.23472187088125
            0.44453796    0.81377028525955
 s    1 1.00
            0.12194962                   1
 p    1 1.00
                   0.8                   1

16 0
 s    5 1.00
          1712.8415853  -0.0054477995804909
          257.64812677  -0.040627174632423
          58.458245853   -0.18111962250584
          16.198367905   -0.46843975563173
          5.0052600809   -0.44616846289231
 s    1 1.00
         0.58731856571                   1
 s    1 1.00
         0.18764592253                   1
 p    3 1.00
          13.571470233  -0.058848116969522
          2.9257372874   -0.32024624762471
         0.79927750754   -0.75328226520436
 p    1 1.00
         0.21954348034                   1
 d    1 1.00
                     1                   1

17 0
 s    3 1.00
             13.010701   0.033485484812989
             1.9622572    0.23472187088125
            0.44453796    0.81377028525955
 s    1 1.00
            0.12194962                   1
 p    1 1.00
                   0.8                   1

18 0
 s    3 1.00
             13.010701   0.033485484812989
             1.9622572    0.23472187088125
            0.44453796    0.81377028525955
 s    1 1.00
            0.12194962                   1
 p    1 1.00
                   0.8                   1

19 0
 s    3 1.00
             13.010701   0.033485484812989
             1.9622572    0.23472187088125
            0.44453796    0.81377028525955
 s    1 1.00
            0.12194962                   1
 p    1 1.00
                   0.8                   1

20 0
 s    5 1.00
          1712.8415853  -0.0054477995804909
          257.64812677  -0.040627174632423
          58.458245853   -0.18111962250584
          16.198367905   -0.46843975563173
          5.0052600809   -0.44616846289231
 s    1 1.00
         0.58731856571                   1
 s    1 1.00
         0.18764592253                   1
 p    3 1.00
          13.571470233  -0.058848116969522
          2.9257372874   -0.32024624762471
         0.79927750754   -0.75328226520436
 p    1 1.00
         0.21954348034                   1
 d    1 1.00
                     1                   1

21 0
 s    3 1.00
             13.010701   0.033485484812989
             1.9622572    0.23472187088125
            0.44453796    0.81377028525955
 s    1 1.00
            0.12194962                   1
 p    1 1.00
                   0.8                   1

22 0
 s    3 1.00
             13.010701   0.033485484812989
             1.9622572    0.23472187088125
            0.44453796    0.81377028525955
 s    1 1.00
            0.12194962                   1
 p    1 1.00
                   0.8                   1

23 0
 s    3 1.00
             13.010701   0.033485484812989
             1.9622572    0.23472187088125
            0.44453796    0.81377028525955
 s    1 1.00
            0.12194962                   1
 p    1 1.00
                   0.8                   1

24 0
 s    5 1.00
          1712.8415853  -0.0054477995804909
          257.64812677  -0.040627174632423
          58.458245853   -0.18111962250584
          16.198367905   -0.46843975563173
          5.0052600809   -0.44616846289231
 s    1 1.00
         0.58731856571                   1
 s    1 1.00
         0.18764592253                   1
 p    3 1.00
          13.571470233  -0.058848116969522
          2.9257372874   -0.32024624762471
         0.79927750754   -0.75328226520436
 p    1 1.00
         0.21954348034                   1
 d    1 1.00
                     1                   1

25 0
 s    3 1.00
             13.010701   0.033485484812989
             1.9622572    0.23472187088125
            0.44453796    0.81377028525955
 s    1 1.00
            0.12194962                   1
 p    1 1.00
                   0.8                   1

26 0
 s    3 1.00
             13.010701   0.033485484812989
             1.9622572    0.23472187088125
            0.44453796    0.81377028525955
 s    1 1.00
            0.12194962                   1
 p    1 1.00
                   0.8                   1

27 0
 s    3 1.00
             13.010701   0.033485484812989
             1.9622572    0.23472187088125
            0.44453796    0.81377028525955
 s    1 1.00
            0.12194962                   1
 p    1 1.00
                   0.8                   1

28 0
 s    5 1.00
          1712.8415853  -0.0054477995804909
          257.64812677  -0.040627174632423
          58.458245853   -0.18111962250584
          16.198367905   -0.46843975563173
          5.0052600809   -0.44616846289231
 s    1 1.00
         0.58731856571                   1
 s    1 1.00
         0.18764592253                   1
 p    3 1.00
          13.571470233  -0.058848116969522
          2.9257372874   -0.32024624762471
         0.79927750754   -0.75328226520436
 p    1 1.00
         0.21954348034                   1
 d    1 1.00
                     1                   1

29 0
 s    3 1.00
             13.010701   0.033485484812989
             1.9622572    0.23472187088125
            0.44453796    0.81377028525955
 s    1 1.00
            0.12194962                   1
 p    1 1.00
                   0.8                   1

30 0
 s    3 1.00
             13.010701   0.033485484812989
             1.9622572    0.23472187088125
            0.44453796    0.81377028525955
 s    1 1.00
            0.12194962                   1
 p    1 1.00
                   0.8                   1

31 0
 s    3 1.00
             13.010701   0.033485484812989
             1.9622572    0.23472187088125
            0.44453796    0.81377028525955
 s    1 1.00
            0.12194962                   1
 p    1 1.00
                   0.8                   1

32 0
 s    5 1.00
          1712.8415853  -0.0054477995804909
          257.64812677  -0.040627174632423
          58.458245853   -0.18111962250584
          16.198367905   -0.46843975563173
          5.0052600809   -0.44616846289231
 s    1 1.00
         0.58731856571                   1
 s    1 1.00
         0.18764592253                   1
 p    3 1.00
          13.571470233  -0.058848116969522
          2.9257372874   -0.32024624762471
         0.79927750754   -0.75328226520436
 p    1 1.00
         0.21954348034                   1
 d    1 1.00
                     1                   1

33 0
 s    3 1.00
             13.010701   0.033485484812989
             1.9622572    0.23472187088125
            0.44453796    0.81377028525955
 s    1 1.00
            0.12194962                   1
 p    1 1.00
                   0.8                   1

34 0
 s    3 1.00
             13.010701   0.033485484812989
             1.9622572    0.23472187088125
            0.44453796    0.81377028525955
 s    1 1.00
            0.12194962                   1
 p    1 1.00
                   0.8                   1

35 0
 s    3 1.00
             13.010701   0.033485484812989
             1.9622572    0.23472187088125
            0.44453796    0.81377028525955
 s    1 1.00
            0.12194962                   1
 p    1 1.00
                   0.8                   1

36 0
 s    5 1.00
          1712.8415853  -0.0054477995804909
          257.64812677  -0.040627174632423
          58.458245853   -0.18111962250584
          16.198367905   -0.46843975563173
          5.0052600809   -0.44616846289231
 s    1 1.00
         0.58731856571                   1
 s    1 1.00
         0.18764592253                   1
 p    3 1.00
          13.571470233  -0.058848116969522
          2.9257372874   -0.32024624762471
         0.79927750754   -0.75328226520436
 p    1 1.00
         0.21954348034                   1
 d    1 1.00
                     1                   1

37 0
 s    3 1.00
             13.010701   0.033485484812989
             1.9622572    0.23472187088125
            0.44453796    0.81377028525955
 s    1 1.00
            0.12194962                   1
 p    1 1.00
                   0.8                   1

38 0
 s    3 1.00
             13.010701   0.033485484812989
             1.9622572    0.23472187088125
            0.44453796    0.81377028525955
 s    1 1.00
            0.12194962                   1
 p    1 1.00
                   0.8                   1

39 0
 s    3 1.00
             13.010701   0.033485484812989
             1.9622572    0.23472187088125
            0.44453796    0.81377028525955
 s    1 1.00
            0.12194962                   1
 p    1 1.00
                   0.8                   1

40 0
 s    5 1.00
          1712.8415853  -0.0054477995804909
          257.64812677  -0.040627174632423
          58.458245853   -0.18111962250584
          16.198367905   -0.46843975563173
          5.0052600809   -0.44616846289231
 s    1 1.00
         0.58731856571                   1
 s    1 1.00
         0.18764592253                   1
 p    3 1.00
          13.571470233  -0.058848116969522
          2.9257372874   -0.32024624762471
         0.79927750754   -0.75328226520436
 p    1 1.00
         0.21954348034                   1
 d    1 1.00
                     1                   1

41 0
 s    3 1.00
             13.010701   0.033485484812989
             1.9622572    0.23472187088125
            0.44453796    0.81377028525955
 s    1 1.00
            0.12194962                   1
 p    1 1.00
                   0.8                   1

42 0
 s    3 1.00
             13.010701   0.033485484812989
             1.9622572    0.23472187088125
            0.44453796    0.81377028525955
 s    1 1.00
            0.12194962                   1
 p    1 1.00
                   0.8                   1

43 0
 s    3 1.00
             13.010701   0.033485484812989
             1.9622572    0.23472187088125
            0.44453796    0.81377028525955
 s    1 1.00
            0.12194962                   1
 p    1 1.00
                   0.8                   1

[5d]
[7f]
[9g]

[MO]
 Sym= A
 Ene=               0
 Spin= Alpha
 Occup=    1.00000
   1    1.7155593540283e-06
   2    -3.9054094715856e-06
   3    2.8415090705083e-05
   4    -0.0001103937846381
   5    -0.0001280167195698
   6    -5.4541518018915e-06
   7    -4.2933251109205e-07
   8    -1.2986688001951e-05
   9    1.9473768026534e-05
  10    1.8294639723014e-06
  11    4.507861349281e-05
  12    -6.919064811359e-05
  13    -2.6728944273326e-05
  14    -0.00013208762665281
  15    0.00010821256037208
  16    0.00015251343434967
  17    1.4901490154349e-05
  18    3.6205404993833e-05
  19    -9.5122939907838e-05
  20    -0.00013930846457497
  21    -0.00012603523489743
  22    -7.3045484835782e-05
  23    -1.3753915761425e-05
  24    5.0470838303229e-05
  25    -8.5742459707063e-06
  26    -2.0459730982349e-06
  27    -1.3164593297238e-05
  28    5.430175000803e-06
  29    -6.9704578374391e-07
  30    -1.2149418295744e-06
  31    -6.0949344249799e-07
  32    -9.7126017559815e-06
  33    2.5645443354743e-05
  34    -0.00014424515049004
  35    0.00030027162633861
  36    0.0003206750952869
  37    -0.00022385192729262
  38    3.8567432201549e-05
  39    -0.00023983724387543
  40    0.00072862010794789
  41    -0.00012625521285155
  42    0.00077900789167439
  43    -0.0011357888477084
  44    0.00022616758367854
  45    -0.0011003971483613
  46     -0.38142320168202
  47     -0.63571502124319
  48    -0.075922973327696
  49     -0.15846990524535
  50      0.51078316855556
  51    -0.080991347307942
  52     -0.13504479761942
  53     -0.01615286871892
  54    -0.033732319274067
  55      0.10858043854484
  56    -0.0009904197545613
  57    -0.00085507853929567
  58    -0.000658031638792
  59    0.00054427167654179
  60    -0.00031852440451456
  61    -0.00080314359386585
  62    -0.00094126658698006
  63    -2.0352770591678e-05
  64    -4.8878111781592e-05
  65    -3.1048837404853e-06
  66    -0.00054729601270939
  67    0.00018798496523185
  68    -0.00074099695866046
  69    -0.00030064491975774
  70    0.00015393708586673
  71    -0.00043015490612802
  72    -0.0004254901370642
  73    -0.00069298461211996
  74    -9.4364958729296e-05
  75    -0.00017213681653783
  76    0.00055740399816536
  77    -5.4285792025147e-05
  78    -0.00018135805692412
  79     0.000465165148688
  80    5.8126812718773e-06
  81    0.00016301205905631
  82    0.00021188388261446
  83    6.600843267901e-05
  84    -5.8520618106992e-05
  85    -0.00019028872947937
  86    5.3835631829501e-06
  87    -1.9468743209546e-05
  88    1.1340947172454e-05
  89    1.5260665515228e-05
  90    -7.6399291806953e-07
  91    7.0040951403747e-05
  92    0.00016417633194722
  93    1.5079818695984e-08
  94    -7.6979491208511e-06
  95    -8.9927809794425e-06
  96    -4.7827741003425e-05
  97    -0.00038962725836155
  98    -3.0077812547259e-06
  99    -8.0886668942489e-06
 100    5.0620614736603e-05
 101    -0.0001367511512429
 102    -0.00061481835211833
 103    -4.0561828610241e-05
 104    2.711008350215e-05
 105    1.7433839252028e-05
 106     2.13556072268e-05
 107    9.467339011369e-05
 108    -0.00044440394646929
 109    -1.8150369080386e-05
 110    -0.00015744493401582
 111    -1.2722787758599e-06
 112    0.00019036768883517
 113    9.0821808002177e-05
 114    0.00013872231452863
 115    -1.7533867705729e-05
 116    -1.3530368175273e-05
 117    -1.240136144117e-05
 118    1.298414110991e-05
 119    4.0824303393043e-06
 120    9.8458149013892e-05
 121    0.00056804912907639
 122    7.9563294607582e-06
 123    -3.3583570306248e-05
 124    -6.0449931940858e-05
 125    -3.2488299823066e-06
 126    -6.6571364023623e-05
 127    -8.8330517418808e-06
 128    1.7549170287222e-05
 129    1.197980708582e-05
 130    4.435877294432e-06
 131    0.00028663488153705
 132    -1.3997370523916e-05
 133    -1.8851344744279e-05
 134    -1.7313271207557e-05
 135    -5.5581430932868e-05
 136    -0.0001800313161455
 137    0.00045716616510248
 138    -6.4099941906953e-05
 139    0.00010953166997655
 140    0.00024526853075488
 141    -1.1735724747761e-05
 142    -0.00016481558081178
 143    -0.00012442590108736
 144    -3.3258922154805e-06
 145    -3.1104268429285e-07
 146    9.7401859858546e-06
 147    -2.5186704613438e-05
 148    2.8170024711781e-06
 149    7.3641886639942e-05
 150    0.00015880326063496
 151    2.6497117169541e-06
 152    -4.9266032933879e-06
 153    -1.2154082373604e-05
 154    -0.00013963446812152
 155    -0.00066298836378708
 156    -2.5443456851115e-05
 157    4.6782592419553e-05
 158    9.2953284553321e-06
 159    -4.7762478490928e-05
 160    -0.00037348751274699
 161    3.0116279979169e-05
 162    2.6558086986044e-05
 163    3.2117239439067e-05
 164    4.066849441913e-05
 165    0.00015172341729703
 166    -0.00054000013799506
 167    0.00019263661772683
 168    -4.7225628608236e-05
 169    -0.00011113958103099
 170    -3.636231423015e-07
 171    -3.4476965633276e-05
 172    0.00024477508728203
 173    -1.9771026723955e-05
 174    -2.2174975108542e-06
 175    -1.8099242732762e-05
 176    -6.394961435205e-06
 177    3.9587819559531e-06
 178    1.4596616813037e-05
 179    0.00044507728542133
 180    1.3688608501179e-05
 181     1.35209648003e-05
 182    -3.8443945427368e-05
 183    -2.7285966801928e-05
 184    -0.00013270665198792
 185    -1.4073420750583e-05
 186    1.3517688535329e-05
 187    7.7936413831976e-06
 188    0.00013809584783884
 189    0.00069562557936285
 190    8.3035614680974e-06
 191    -5.2967963519725e-05
 192    -4.6433921215847e-05
 193    -3.0336587517856e-06
 194    -4.954771843421e-06
 195    -2.495257070896e-05
 196    1.394974915471e-05
 197    2.2953448997987e-06
 198    2.3700912682104e-05
 199    -4.3489632518922e-05
 200    1.2947497117901e-05
 201    -4.6713528205159e-05
 202    2.0393739649409e-06
 203    -3.1322162392294e-06
 204    1.9003283761225e-06
 205    -2.102120638999e-06
 206    5.1546769151098e-06
 207    1.0061111068259e-05
 208    -4.9688881423682e-06
 209    4.0682934586774e-06
 210    -1.964572717569e-07
 211    -3.3397548174393e-07
 212    1.0981698228045e-05
 213    -1.0470609768569e-06
 214    1.0865584464259e-06
 215    -3.6461889689759e-06
 216    1.5133383819267e-06
 217    -1.5879484362035e-05
 218    6.9329861710199e-05
 219    -5.4606409108778e-06
 220    4.8283981323793e-06
 221    -3.1991194460004e-07
 222    3.6945006130961e-07
 223    -2.6866301547855e-05
 224    0.00058183912132497
 225    -0.0013935573393367
 226    -0.012716303287234
 227     0.015799267773909
 228    0.0016715418076154
 229    0.0082696761546425
 230    -0.011482737832268
 231    0.0024975453919507
 232    0.0033546775182286
 233    -0.00015205616594368
 234    0.00095654787846794
 235    -0.0021989614194874
 236    -0.016196033144836
 237    -0.0089474970753241
 238    0.00010003291644052
 239    -0.0012990758965388
 240    -0.00078494156636045
 241     0.024761033016342
 242     0.011527422769455
 243    0.00070526341354014
 244    -0.00021326818702502
 245    0.0014756614360445
 246    -0.0093525926698895
 247    -0.0037461931079597
 248    -0.00064263398518307
 249    0.00089103846529595
 250    -0.00011828864430423
 251    1.0511581496035e-05
 252    9.2811249391172e-05
 253    -0.00062072483576586
 254    -0.019205272960959
 255    -0.0069181409472056
 256    -0.006868363371919
 257      0.01272370483441
 258    0.0052647418871622
 259    0.0054456986215116
 260     0.002175626508872
 261    0.0028250262722683
 262    0.00067293734424748
 263    0.00045037367285714
 264    -0.0032183593879721
 265     0.013041302399423
 266    0.0054600846902229
 267    0.00088093705646234
 268    -0.00039043577473554
 269    -0.00087022406703453
 270     0.013594630787343
 271    0.0074809455681753
 272    -0.00038748115474505
 273    0.0013263634546232
 274    0.00038666639926154
 275     -0.02597198165965
 276    -0.012279637975387
 277    -0.0014006480809809
 278    -0.0011352885839863
 279    0.00036080850458284
 280    -3.1747087406916e-06
 281    5.6383370517054e-05
 282    -0.0006538972857236
 283    0.00017604415583896
 284     0.012955499806363
 285    -0.017087588770467
 286    -0.00031963423423142
 287    -0.0080963144543118
 288     0.012310810946149
 289    0.0016698682476249
 290     0.003188593367947
 291    0.0011748577680171
 292    0.00075673368072007
 293    -0.0029596832073525
 294     0.012397691703139
 295    0.0051449000022204
 296    8.7467106681887e-05
 297    -0.0012108400988015
 298    -0.00037121298476433
 299    -0.025898737769905
 300    -0.012152104979408
 301    0.0010026095863113
 302    0.0012280876226492
 303    -0.00089395677782102
 304     0.014199866047764
 305     0.007781203945702
 306    -0.001070261213691
 307    0.00071725673870044
 308    0.00068526677178337
 309    4.9283931930895e-06
 310    5.1572640664011e-06
 311    0.00033417484640418
 312     0.018009994029465
 313    0.0071609862700054
 314    0.0056125005095094
 315    -0.011998242513414
 316    -0.0055563736842602
 317    -0.0040625550711355
 318    0.0020998651634481
 319    0.0037723150646802
 320    0.00049277848486575
 321    0.00069338216487716
 322    -0.0019036165880071
 323    -0.0061681820640699
 324    -0.0024744326078608
 325    -0.00096672916615864
 326    0.00027646049617282
 327    -7.5636814469376e-05
 328     0.024172740773544
 329     0.011620122091373
 330    0.00076081833377614
 331    0.00025076593072902
 332    0.0014682313556542
 333    -0.018489593263787
 334    -0.0099068400109276
 335    0.0010585288407453
 336    -0.00040701251485942
 337    -0.0011305541898129