[Molden Format]
made by pyscf v[2.1.1]
[Atoms] (AU)
Cr   1   24     1.56143912275337    -2.46507591990239    -1.82404491365355
Cr   2   24    -1.56139565905251     2.46513072196000     1.82399011159594
O   3   8     0.00002078698737     0.00002834589187    -0.00002645616574
N   4   7     5.12832174930954    -1.10581670549011    -0.60767356069801
H   5   1     6.65216855026694    -1.66292686427314    -1.66487895135981
H   6   1     5.63710405218294    -1.59213394419468     1.18765885421890
H   7   1     5.20084187906585     0.81566059741989    -0.65509245834172
N   8   7     1.71230729763415    -0.02251608677419    -4.99594076510539
H   9   1     0.29795878723855     1.27247165241550    -4.90823668593820
H   10   1     1.50271021425414    -0.85583806455427    -6.73026148236459
H   11   1     3.34039895052705     0.99863710888315    -5.18656310846864
N   12   7     1.41057094787259    -4.90763575303059     1.34785282752440
H   13   1     1.64193389675534    -6.79355407945465     0.97314659318890
H   14   1    -0.29048681014202    -4.81040367474334     2.24006056107205
H   15   1     2.72468082571676    -4.56691435331926     2.71738081369757
N   16   7    -2.00544350380280    -3.82433513431467    -3.04041437688297
H   17   1    -2.87205678671934    -5.05516478184926    -1.83221042023780
H   18   1    -2.03637832046193    -4.76397121413665    -4.73247136936628
H   19   1    -3.24475802163669    -2.37551046050250    -3.28123540501917
N   20   7     3.37923471211299    -5.33493873459111    -3.94755661599306
H   21   1     4.17102617885350    -4.76109883042731    -5.61685374703210
H   22   1     2.26176595533881    -6.82326057413281    -4.47610923358166
H   23   1     4.85383336053810    -6.19899521806112    -3.03922195969837
N   24   7    -5.12827828560868     1.10587339727385     0.60762064836653
H   25   1    -5.15408816501799    -0.81544705836782     0.54662784797006
H   26   1    -5.69743166898356     1.68113626520945    -1.14337690194197
H   27   1    -6.63528195761783     1.56841410187914     1.73267665553083
N   28   7    -1.71226383393328     0.02257088883181     4.99588785277390
H   29   1    -1.62991523860311     0.86667375415253     6.73575491620870
H   30   1    -0.22416876152653    -1.19157625647512     4.98456461383551
H   31   1    -3.28782110056328    -1.08746368536834     5.11339858210385
N   32   7     2.00548696750367     3.82438993637228     3.04035957482536
H   33   1     2.05186651577887     4.68410571893416     4.77402266739321
H   34   1     2.83712330958063     5.12208376337235     1.87805706574587
H   35   1     3.26582090902109     2.38241174030942     3.19051154350492
N   36   7    -1.41052748417173     4.90769055508820    -1.34790762958202
H   37   1    -1.75003190025884     6.78104976168840    -0.99229329828299
H   38   1    -2.65834387984003     4.49309409198925    -2.75785496783350
H   39   1     0.32278033988471     4.89894112313146    -2.18344058692784
N   40   7    -3.37919124841212     5.33499353664873     3.94750181393545
H   41   1    -2.26357064378777     6.83195331430581     4.45515784003860
H   42   1    -4.15358022727151     4.76963661305810     5.62761006813313
H   43   1    -4.86681766873998     6.18449345978121     3.04686590187224
[GTO]
1 0
 s    6 1.00
          51528.086349  0.0017695545768669
          7737.2103487   0.013556436258096
           1760.374847   0.067162645785071
          496.87706544    0.23295905918518
          161.46520598    0.47040576982722
          55.466352268    0.35733072606876
 s    3 1.00
          107.54732999   -0.10605255446629
          12.408671897    0.62543981484169
          5.0423628826    0.44878820793655
 s    3 1.00
          8.5461640165   -0.21819012081133
          1.3900441221    0.70422525667731
         0.56066602876    0.42488555412558
 s    1 1.00
        0.071483705972                   1
 s    1 1.00
        0.028250687604                   1
 p    5 1.00
          640.48536096  0.0093555063746755
          150.69711194   0.068993338492216
          47.503755296     0.2634118959318
          16.934120165    0.51034501651775
           6.240968059    0.33195512953954
 p    3 1.00
          3.0885463206    0.32917682676976
          1.1791047769    0.55491385190365
         0.43369774432    0.23818412855984
 p    1 1.00
              0.120675                   1
 d    4 1.00
          27.559479426   0.036950140313562
          7.4687020327    0.18821519783039
          2.4345903574    0.44641244239929
         0.78244754808     0.5681617303244
 d    1 1.00
         0.21995774311                   1
 f    1 1.00
                 1.147                   1

2 0
 s    6 1.00
          51528.086349  0.0017695545768669
          7737.2103487   0.013556436258096
           1760.374847   0.067162645785071
          496.87706544    0.23295905918518
          161.46520598    0.47040576982722
          55.466352268    0.35733072606876
 s    3 1.00
          107.54732999   -0.10605255446629
          12.408671897    0.62543981484169
          5.0423628826    0.44878820793655
 s    3 1.00
          8.5461640165   -0.21819012081133
          1.3900441221    0.70422525667731
         0.56066602876    0.42488555412558
 s    1 1.00
        0.071483705972                   1
 s    1 1.00
        0.028250687604                   1
 p    5 1.00
          640.48536096  0.0093555063746755
          150.69711194   0.068993338492216
          47.503755296     0.2634118959318
          16.934120165    0.51034501651775
           6.240968059    0.33195512953954
 p    3 1.00
          3.0885463206    0.32917682676976
          1.1791047769    0.55491385190365
         0.43369774432    0.23818412855984
 p    1 1.00
              0.120675                   1
 d    4 1.00
          27.559479426   0.036950140313562
          7.4687020327    0.18821519783039
          2.4345903574    0.44641244239929
         0.78244754808     0.5681617303244
 d    1 1.00
         0.21995774311                   1
 f    1 1.00
                 1.147                   1

3 0
 s    5 1.00
          2266.1767785  -0.0053893503921743
          340.87010191   -0.04023472138896
          77.363135167   -0.18008184205526
           21.47964494   -0.46828857657651
          6.6589433124   -0.44692617160187
 s    1 1.00
         0.80975975668                   1
 s    1 1.00
         0.25530772234                   1
 p    3 1.00
          17.721504317   0.062630248763161
           3.863550544    0.33331138482352
          1.0480920883    0.74148638308122
 p    1 1.00
         0.27641544411                   1
 d    1 1.00
                   1.2                   1

4 0
 s    5 1.00
          1712.8415853  -0.0054477995804909
          257.64812677  -0.040627174632423
          58.458245853   -0.18111962250584
          16.198367905   -0.46843975563173
          5.0052600809   -0.44616846289231
 s    1 1.00
         0.58731856571                   1
 s    1 1.00
         0.18764592253                   1
 p    3 1.00
          13.571470233  -0.058848116969522
          2.9257372874   -0.32024624762471
         0.79927750754   -0.75328226520436
 p    1 1.00
         0.21954348034                   1
 d    1 1.00
                     1                   1

5 0
 s    3 1.00
             13.010701   0.033485484812989
             1.9622572    0.23472187088125
            0.44453796    0.81377028525955
 s    1 1.00
            0.12194962                   1
 p    1 1.00
                   0.8                   1

6 0
 s    3 1.00
             13.010701   0.033485484812989
             1.9622572    0.23472187088125
            0.44453796    0.81377028525955
 s    1 1.00
            0.12194962                   1
 p    1 1.00
                   0.8                   1

7 0
 s    3 1.00
             13.010701   0.033485484812989
             1.9622572    0.23472187088125
            0.44453796    0.81377028525955
 s    1 1.00
            0.12194962                   1
 p    1 1.00
                   0.8                   1

8 0
 s    5 1.00
          1712.8415853  -0.0054477995804909
          257.64812677  -0.040627174632423
          58.458245853   -0.18111962250584
          16.198367905   -0.46843975563173
          5.0052600809   -0.44616846289231
 s    1 1.00
         0.58731856571                   1
 s    1 1.00
         0.18764592253                   1
 p    3 1.00
          13.571470233  -0.058848116969522
          2.9257372874   -0.32024624762471
         0.79927750754   -0.75328226520436
 p    1 1.00
         0.21954348034                   1
 d    1 1.00
                     1                   1

9 0
 s    3 1.00
             13.010701   0.033485484812989
             1.9622572    0.23472187088125
            0.44453796    0.81377028525955
 s    1 1.00
            0.12194962                   1
 p    1 1.00
                   0.8                   1

10 0
 s    3 1.00
             13.010701   0.033485484812989
             1.9622572    0.23472187088125
            0.44453796    0.81377028525955
 s    1 1.00
            0.12194962                   1
 p    1 1.00
                   0.8                   1

11 0
 s    3 1.00
             13.010701   0.033485484812989
             1.9622572    0.23472187088125
            0.44453796    0.81377028525955
 s    1 1.00
            0.12194962                   1
 p    1 1.00
                   0.8                   1

12 0
 s    5 1.00
          1712.8415853  -0.0054477995804909
          257.64812677  -0.040627174632423
          58.458245853   -0.18111962250584
          16.198367905   -0.46843975563173
          5.0052600809   -0.44616846289231
 s    1 1.00
         0.58731856571                   1
 s    1 1.00
         0.18764592253                   1
 p    3 1.00
          13.571470233  -0.058848116969522
          2.9257372874   -0.32024624762471
         0.79927750754   -0.75328226520436
 p    1 1.00
         0.21954348034                   1
 d    1 1.00
                     1                   1

13 0
 s    3 1.00
             13.010701   0.033485484812989
             1.9622572    0.23472187088125
            0.44453796    0.81377028525955
 s    1 1.00
            0.12194962                   1
 p    1 1.00
                   0.8                   1

14 0
 s    3 1.00
             13.010701   0.033485484812989
             1.9622572    0.23472187088125
            0.44453796    0.81377028525955
 s    1 1.00
            0.12194962                   1
 p    1 1.00
                   0.8                   1

15 0
 s    3 1.00
             13.010701   0.033485484812989
             1.9622572    0.23472187088125
            0.44453796    0.81377028525955
 s    1 1.00
            0.12194962                   1
 p    1 1.00
                   0.8                   1

16 0
 s    5 1.00
          1712.8415853  -0.0054477995804909
          257.64812677  -0.040627174632423
          58.458245853   -0.18111962250584
          16.198367905   -0.46843975563173
          5.0052600809   -0.44616846289231
 s    1 1.00
         0.58731856571                   1
 s    1 1.00
         0.18764592253                   1
 p    3 1.00
          13.571470233  -0.058848116969522
          2.9257372874   -0.32024624762471
         0.79927750754   -0.75328226520436
 p    1 1.00
         0.21954348034                   1
 d    1 1.00
                     1                   1

17 0
 s    3 1.00
             13.010701   0.033485484812989
             1.9622572    0.23472187088125
            0.44453796    0.81377028525955
 s    1 1.00
            0.12194962                   1
 p    1 1.00
                   0.8                   1

18 0
 s    3 1.00
             13.010701   0.033485484812989
             1.9622572    0.23472187088125
            0.44453796    0.81377028525955
 s    1 1.00
            0.12194962                   1
 p    1 1.00
                   0.8                   1

19 0
 s    3 1.00
             13.010701   0.033485484812989
             1.9622572    0.23472187088125
            0.44453796    0.81377028525955
 s    1 1.00
            0.12194962                   1
 p    1 1.00
                   0.8                   1

20 0
 s    5 1.00
          1712.8415853  -0.0054477995804909
          257.64812677  -0.040627174632423
          58.458245853   -0.18111962250584
          16.198367905   -0.46843975563173
          5.0052600809   -0.44616846289231
 s    1 1.00
         0.58731856571                   1
 s    1 1.00
         0.18764592253                   1
 p    3 1.00
          13.571470233  -0.058848116969522
          2.9257372874   -0.32024624762471
         0.79927750754   -0.75328226520436
 p    1 1.00
         0.21954348034                   1
 d    1 1.00
                     1                   1

21 0
 s    3 1.00
             13.010701   0.033485484812989
             1.9622572    0.23472187088125
            0.44453796    0.81377028525955
 s    1 1.00
            0.12194962                   1
 p    1 1.00
                   0.8                   1

22 0
 s    3 1.00
             13.010701   0.033485484812989
             1.9622572    0.23472187088125
            0.44453796    0.81377028525955
 s    1 1.00
            0.12194962                   1
 p    1 1.00
                   0.8                   1

23 0
 s    3 1.00
             13.010701   0.033485484812989
             1.9622572    0.23472187088125
            0.44453796    0.81377028525955
 s    1 1.00
            0.12194962                   1
 p    1 1.00
                   0.8                   1

24 0
 s    5 1.00
          1712.8415853  -0.0054477995804909
          257.64812677  -0.040627174632423
          58.458245853   -0.18111962250584
          16.198367905   -0.46843975563173
          5.0052600809   -0.44616846289231
 s    1 1.00
         0.58731856571                   1
 s    1 1.00
         0.18764592253                   1
 p    3 1.00
          13.571470233  -0.058848116969522
          2.9257372874   -0.32024624762471
         0.79927750754   -0.75328226520436
 p    1 1.00
         0.21954348034                   1
 d    1 1.00
                     1                   1

25 0
 s    3 1.00
             13.010701   0.033485484812989
             1.9622572    0.23472187088125
            0.44453796    0.81377028525955
 s    1 1.00
            0.12194962                   1
 p    1 1.00
                   0.8                   1

26 0
 s    3 1.00
             13.010701   0.033485484812989
             1.9622572    0.23472187088125
            0.44453796    0.81377028525955
 s    1 1.00
            0.12194962                   1
 p    1 1.00
                   0.8                   1

27 0
 s    3 1.00
             13.010701   0.033485484812989
             1.9622572    0.23472187088125
            0.44453796    0.81377028525955
 s    1 1.00
            0.12194962                   1
 p    1 1.00
                   0.8                   1

28 0
 s    5 1.00
          1712.8415853  -0.0054477995804909
          257.64812677  -0.040627174632423
          58.458245853   -0.18111962250584
          16.198367905   -0.46843975563173
          5.0052600809   -0.44616846289231
 s    1 1.00
         0.58731856571                   1
 s    1 1.00
         0.18764592253                   1
 p    3 1.00
          13.571470233  -0.058848116969522
          2.9257372874   -0.32024624762471
         0.79927750754   -0.75328226520436
 p    1 1.00
         0.21954348034                   1
 d    1 1.00
                     1                   1

29 0
 s    3 1.00
             13.010701   0.033485484812989
             1.9622572    0.23472187088125
            0.44453796    0.81377028525955
 s    1 1.00
            0.12194962                   1
 p    1 1.00
                   0.8                   1

30 0
 s    3 1.00
             13.010701   0.033485484812989
             1.9622572    0.23472187088125
            0.44453796    0.81377028525955
 s    1 1.00
            0.12194962                   1
 p    1 1.00
                   0.8                   1

31 0
 s    3 1.00
             13.010701   0.033485484812989
             1.9622572    0.23472187088125
            0.44453796    0.81377028525955
 s    1 1.00
            0.12194962                   1
 p    1 1.00
                   0.8                   1

32 0
 s    5 1.00
          1712.8415853  -0.0054477995804909
          257.64812677  -0.040627174632423
          58.458245853   -0.18111962250584
          16.198367905   -0.46843975563173
          5.0052600809   -0.44616846289231
 s    1 1.00
         0.58731856571                   1
 s    1 1.00
         0.18764592253                   1
 p    3 1.00
          13.571470233  -0.058848116969522
          2.9257372874   -0.32024624762471
         0.79927750754   -0.75328226520436
 p    1 1.00
         0.21954348034                   1
 d    1 1.00
                     1                   1

33 0
 s    3 1.00
             13.010701   0.033485484812989
             1.9622572    0.23472187088125
            0.44453796    0.81377028525955
 s    1 1.00
            0.12194962                   1
 p    1 1.00
                   0.8                   1

34 0
 s    3 1.00
             13.010701   0.033485484812989
             1.9622572    0.23472187088125
            0.44453796    0.81377028525955
 s    1 1.00
            0.12194962                   1
 p    1 1.00
                   0.8                   1

35 0
 s    3 1.00
             13.010701   0.033485484812989
             1.9622572    0.23472187088125
            0.44453796    0.81377028525955
 s    1 1.00
            0.12194962                   1
 p    1 1.00
                   0.8                   1

36 0
 s    5 1.00
          1712.8415853  -0.0054477995804909
          257.64812677  -0.040627174632423
          58.458245853   -0.18111962250584
          16.198367905   -0.46843975563173
          5.0052600809   -0.44616846289231
 s    1 1.00
         0.58731856571                   1
 s    1 1.00
         0.18764592253                   1
 p    3 1.00
          13.571470233  -0.058848116969522
          2.9257372874   -0.32024624762471
         0.79927750754   -0.75328226520436
 p    1 1.00
         0.21954348034                   1
 d    1 1.00
                     1                   1

37 0
 s    3 1.00
             13.010701   0.033485484812989
             1.9622572    0.23472187088125
            0.44453796    0.81377028525955
 s    1 1.00
            0.12194962                   1
 p    1 1.00
                   0.8                   1

38 0
 s    3 1.00
             13.010701   0.033485484812989
             1.9622572    0.23472187088125
            0.44453796    0.81377028525955
 s    1 1.00
            0.12194962                   1
 p    1 1.00
                   0.8                   1

39 0
 s    3 1.00
             13.010701   0.033485484812989
             1.9622572    0.23472187088125
            0.44453796    0.81377028525955
 s    1 1.00
            0.12194962                   1
 p    1 1.00
                   0.8                   1

40 0
 s    5 1.00
          1712.8415853  -0.0054477995804909
          257.64812677  -0.040627174632423
          58.458245853   -0.18111962250584
          16.198367905   -0.46843975563173
          5.0052600809   -0.44616846289231
 s    1 1.00
         0.58731856571                   1
 s    1 1.00
         0.18764592253                   1
 p    3 1.00
          13.571470233  -0.058848116969522
          2.9257372874   -0.32024624762471
         0.79927750754   -0.75328226520436
 p    1 1.00
         0.21954348034                   1
 d    1 1.00
                     1                   1

41 0
 s    3 1.00
             13.010701   0.033485484812989
             1.9622572    0.23472187088125
            0.44453796    0.81377028525955
 s    1 1.00
            0.12194962                   1
 p    1 1.00
                   0.8                   1

42 0
 s    3 1.00
             13.010701   0.033485484812989
             1.9622572    0.23472187088125
            0.44453796    0.81377028525955
 s    1 1.00
            0.12194962                   1
 p    1 1.00
                   0.8                   1

43 0
 s    3 1.00
             13.010701   0.033485484812989
             1.9622572    0.23472187088125
            0.44453796    0.81377028525955
 s    1 1.00
            0.12194962                   1
 p    1 1.00
                   0.8                   1

[5d]
[7f]
[9g]

[MO]
 Sym= A
 Ene=               0
 Spin= Alpha
 Occup=    1.00000
   1    2.3355787646674e-05
   2    -4.5863133130273e-05
   3    0.00042622642172984
   4    0.00027288103609335
   5    -0.0016228213920622
   6    -0.0083247694924453
   7    -0.0076970443772775
   8    0.0031415880580031
   9     0.031747836634915
  10     0.029465898206435
  11    -0.011956817935503
  12    -0.057509749605189
  13    -0.052802509664233
  14     0.021832317944841
  15     0.023869250157954
  16    -0.047896269074312
  17    -0.014846185704096
  18     0.075688660945612
  19    -0.020527831292069
  20     0.014735781923484
  21    -0.029231636682895
  22    -0.0092311304848144
  23     0.045696875234499
  24    -0.012546877639922
  25    0.00014238752155928
  26    -0.0017549684476087
  27    0.0016761233459519
  28    0.0046401758961679
  29    -0.0019199728650563
  30    -0.0011434567418858
  31    0.0046563918892174
  32    -2.2729575265036e-05
  33    4.4164440289676e-05
  34    -0.00041799014752639
  35    5.0663321816247e-05
  36    0.00081872444834899
  37    -0.0083236658562881
  38    -0.0076983938960894
  39     0.003141529084019
  40     0.031748571508349
  41     0.029471808807175
  42    -0.011946306375322
  43    -0.057587442346359
  44    -0.052936239239673
  45     0.021494792024252
  46    -0.024023934364992
  47     0.047974828261259
  48     0.014717359242457
  49     -0.07565229122361
  50     0.020371681437508
  51    -0.014705713469931
  52     0.029161743140974
  53    0.0092798294085723
  54    -0.045689514269932
  55     0.012798543805878
  56    0.00014411896064559
  57    -0.0017553609249158
  58    0.0016818712475867
  59    0.0046388756004964
  60    -0.0019202427183552
  61    -0.0011454670377341
  62    0.0046544476021255
  63    -8.8252137509282e-06
  64    -1.1925705378885e-05
  65    -7.1990079903481e-05
  66     -0.40188370742752
  67     -0.36694747766602
  68      0.15304131660582
  69     -0.34725431648463
  70     -0.31736550374867
  71      0.13230321413477
  72    1.0772536113839e-05
  73    -5.1157183338135e-06
  74    7.4814380965236e-06
  75    -7.2261704147375e-07
  76    1.9471620128921e-05
  77     0.010361306330732
  78      0.02313646194388
  79     0.056682029814592
  80     0.022468532714731
  81    -0.010055875155602
  82    0.0025759870820148
  83    -0.022971172065861
  84    0.0062654305328308
  85    -0.019699872895949
  86    -2.0751533069339e-05
  87    0.00069812059656442
  88    4.2412450852309e-05
  89    -0.0022664685778263
  90    0.0016423668535653
  91    -0.017817724828601
  92    -0.0063437899976829
  93    0.00019037219983232
  94    0.00010407156108915
  95    -0.00064806098763506
  96    0.0027474770695849
  97    0.0028087215782281
  98    -0.0014575542700395
  99     0.001111800125494
 100    -0.00049403208654555
 101     0.015231712862997
 102    -0.026725930472307
 103    0.0031901520598421
 104    -0.00037569630350206
 105    0.00052868082233909
 106    0.0084228314327856
 107     0.020284059877848
 108     0.035848248884052
 109     0.003315446966066
 110    -0.00089713198900327
 111    -0.019137406036586
 112    0.0017038516384656
 113    -0.014534319450786
 114     0.017265436252855
 115    -0.0018574227037977
 116    0.00037788091915107
 117    -0.001177433911376
 118    2.9009527688546e-05
 119    -0.00022794274676823
 120     0.012786350082893
 121     -0.00358817990596
 122    0.0011653791973845
 123    -0.00085983153253555
 124    -0.0021808253114892
 125    -0.015118750223895
 126    -0.011642772308788
 127    -0.00095254521193707
 128    4.431103334497e-05
 129    -0.00056318840584735
 130    0.0053100086274314
 131    0.0035035549632841
 132    -0.00091871861311638
 133    5.6123022820072e-05
 134    0.0013961065245339
 135    -0.0085601927530349
 136     -0.01879578953264
 137    -0.048935151551214
 138     -0.01284290218235
 139     0.015684297906843
 140    -0.0063978422099205
 141      0.01922211738214
 142    -0.0089971043476123
 143     0.018503857138497
 144    -0.00078723943576444
 145    0.0014496792121929
 146    -0.00012887977697841
 147    -0.0015788244971555
 148    -0.0010018508436661
 149      0.01443456957784
 150    0.0045321556170228
 151    0.00024761554336221
 152    0.00033994736471954
 153    0.00034544014680068
 154    -0.012869706314778
 155     0.026708653883631
 156    -0.00071377654122672
 157    0.0024048348523188
 158    -0.0016996844344139
 159    -0.0010435937001336
 160    -0.0030257263530304
 161    0.0012283849910334
 162    -0.0010662833271514
 163    0.00047848935574152
 164    -0.010055811918435
 165    -0.024100795546228
 166    -0.043922085233997
 167    0.0091330267455548
 168      0.01462831155124
 169     0.014834233648284
 170     -0.02531953568012
 171    -0.0059016219161134
 172    -0.0068048899663322
 173    0.0012247385078008
 174    0.00036967940824413
 175    0.0020566588104385
 176    -0.00098295430840293
 177    0.00065402534332239
 178    -0.0075212656760054
 179    -0.0026846599796977
 180    -0.00044102099437062
 181    -0.0016387532910111
 182    -0.00032234681676482
 183     0.018530297204137
 184     0.013717659000351
 185    0.00029440298660152
 186    -0.00035524840321251
 187    0.0010301937184525
 188    -0.014552798994285
 189    0.0044860975038208
 190    0.00015121098547517
 191    0.0023796374039143
 192    0.00088241138190424
 193    -1.2083659370867e-05
 194    -2.4298259394549e-05
 195    -0.00019577337541444
 196    -0.0018421750415301
 197    -0.0016294439960883
 198    0.00068135213034976
 199    -0.00050526465509142
 200    -0.00036578014580067
 201    0.00025587100548162
 202    -0.00017945088710966
 203    0.00021305713556707
 204    0.0001460552912588
 205    -0.00022867070650539
 206     0.000146017754272
 207    0.0011259577536635
 208    0.0028635093406466
 209    -0.00019473601203543
 210    0.00043073255519309
 211    0.00054755693387231
 212    -0.001295798113305
 213    -0.0029805937425851
 214    0.00020944344340613
 215    -0.00060339694585113
 216    -0.00052297670295738
 217    0.00020409691121765
 218    0.00073976946823025
 219    9.9196483742418e-05
 220    0.0002851626984084
 221    -7.2524096416466e-05
 222    -0.010447490410033
 223    -0.023061496408061
 224    -0.058317618997915
 225     0.022710352177397
 226    -0.010560005183563
 227    0.0021838738875349
 228    -0.023890195673052
 229    0.0079511914259347
 230    -0.018408265747027
 231    5.8033800611143e-05
 232    -0.00067410134609877
 233    -0.00021976772887549
 234    0.0022961575390878
 235    -0.0015497770929148
 236    -0.015229962093561
 237     0.028581628596925
 238     0.003604005982162
 239    -0.00042785069841128
 240    0.00052362788864387
 241    -0.0013384619593375
 242    -0.0021694841786103
 243    -0.0015310205740293
 244    0.0011242320797384
 245    -0.00027197316599538
 246     0.017134510893317
 247    0.0054987085971007
 248    6.6874567100947e-05
 249    0.00022607966107845
 250    -0.00069702658681022
 251    -0.008360080856335
 252    -0.020343955611435
 253    -0.034657207611133
 254    0.0027626746310815
 255    -0.00055936937583007
 256    -0.018974122908538
 257    0.0035651657504449
 258    -0.015401816949417
 259     0.016718523945609
 260    0.0018609254036253
 261    -0.00045533471033327
 262    0.0012214551847119
 263    -7.1491042425619e-05
 264    6.6893784007291e-05
 265     0.015479761283714
 266       0.0122479047524
 267    -0.00085311277305359
 268    -3.5443448447649e-05
 269    -0.00064739811728032
 270    -0.012476187346678
 271    0.0013604765412851
 272    0.0012930674214079
 273    -0.00080459608384528
 274    -0.0016988316328943
 275    -0.0064822432012822
 276    -0.0028381635468989
 277    -0.00096592496903356
 278    -2.0470930099561e-05
 279     0.001209695944456
 280      0.01009966965159
 281     0.024074013103133
 282     0.044754830294324
 283    0.0089149925829298
 284     0.015092089597119
 285     0.014807932886019
 286    -0.024778991051765
 287    -0.0073411609061765
 288    -0.0066364821508441
 289    -0.0012940030974369
 290    -0.0003710649070013
 291    -0.0019577990881808
 292    0.00095869367348072
 293    -0.00073785936724156
 294    -0.018243595872462
 295    -0.013161318097373
 296    0.00032977672181955
 297    -0.00048106676560298
 298    0.0010092161456106
 299    0.0066000906031078
 300    0.0029731318177724
 301    -0.00045582782212789
 302    -0.0016977110707253
 303    -0.00050875082532044
 304     0.014894927459199
 305    -0.0061328472956496
 306    0.00026535369939389
 307    0.0025212810508698
 308    0.0012299560912726
 309    0.0084829316976545
 310     0.018894123837621
 311     0.047077672467531
 312    -0.012566285992796
 313     0.015309902653249
 314    -0.0067698011857924
 315     0.018231241453398
 316    -0.0076692797418671
 317     0.019884990474848
 318    0.00074635177057658
 319    -0.0013693489256693
 320    4.7921121148309e-05
 321    0.0016136060155266
 322    0.0011256954270591
 323    -0.014951413890176
 324    -0.0053777371266402
 325    0.00013035676114501
 326    0.00041050982818351
 327    0.00029323781387033
 328    0.0021527692570347
 329     0.004136591971185
 330    0.0013042740617622
 331    -0.00092880866477314
 332    0.00062275006730099
 333     0.012944734645123
 334    -0.024761028419733
 335    -0.00064174820655313
 336    0.0020955678318063
 337    -0.0015491183521703
 338    6.3992463443148e-07
 339    -1.326878746181e-05
 340    0.00016852586042013
 341    -0.0017994069140905
 342    -0.0016521962881204
 343    0.00070604683563491