[Molden Format]
made by pyscf v[2.1.1]
[Atoms] (AU)
Fe   1   26     3.17068844873907     0.00098706064664     0.12237737881307
O   2   8     0.00000000000000     0.00000000000000    -0.89004350580623
Fe   3   26    -3.17068844873907    -0.00098706064664     0.12237737881307
Cl   4   17     3.53383895113107    -2.07485195383062     3.76228752659000
Cl   5   17     5.54152580550813    -1.85590924879884    -2.78672786652360
Cl   6   17     4.48169216485503     3.92976278472880    -0.95330240907949
Cl   7   17    -3.53383895113107     2.07485195383062     3.76228752659000
Cl   8   17    -5.54152580550813     1.85590924879884    -2.78672786652360
Cl   9   17    -4.48169216485503    -3.92976278472880    -0.95330240907949
[GTO]
1 0
 s    6 1.00
          60923.640643  0.0017552243692958
          9147.8893982   0.013449023284001
          2081.3505927   0.066678874640978
          587.55977067    0.23176348548844
           191.0904399    0.46945550248188
          65.732730112     0.3596824938678
 s    3 1.00
          127.25891928   -0.10723431835929
           14.83091301    0.62971616328466
          6.0653307408    0.44472317896179
 s    3 1.00
           10.44994371   -0.21694289195548
          1.7245228003    0.69457867408393
         0.71772177325    0.43298308896347
 s    1 1.00
        0.091449828308                   1
 s    1 1.00
        0.033706691021                   1
 p    5 1.00
          773.43750995  0.0091440529992506
          182.15149714   0.067887577136571
          57.547272758    0.26167978878504
          20.614988935    0.51088040113251
           7.634855789    0.33235475570224
 p    3 1.00
           3.871932799    0.33193859098144
          1.4924724132     0.5553666555499
         0.56061284958    0.23106034201617
 p    1 1.00
              0.134915                   1
 d    4 1.00
          38.968133419   0.033335938558743
          10.800067078    0.17766212505983
          3.6136457999      0.441281781625
          1.2129967888    0.57089200490673
 d    1 1.00
          0.3652439317                   1
 f    1 1.00
                 1.598                   1

2 0
 s    5 1.00
          2266.1767785  -0.0053893503921743
          340.87010191   -0.04023472138896
          77.363135167   -0.18008184205526
           21.47964494   -0.46828857657651
          6.6589433124   -0.44692617160187
 s    1 1.00
         0.80975975668                   1
 s    1 1.00
         0.25530772234                   1
 p    3 1.00
          17.721504317   0.062630248763161
           3.863550544    0.33331138482352
          1.0480920883    0.74148638308122
 p    1 1.00
         0.27641544411                   1
 d    1 1.00
                   1.2                   1

3 0
 s    6 1.00
          60923.640643  0.0017552243692958
          9147.8893982   0.013449023284001
          2081.3505927   0.066678874640978
          587.55977067    0.23176348548844
           191.0904399    0.46945550248188
          65.732730112     0.3596824938678
 s    3 1.00
          127.25891928   -0.10723431835929
           14.83091301    0.62971616328466
          6.0653307408    0.44472317896179
 s    3 1.00
           10.44994371   -0.21694289195548
          1.7245228003    0.69457867408393
         0.71772177325    0.43298308896347
 s    1 1.00
        0.091449828308                   1
 s    1 1.00
        0.033706691021                   1
 p    5 1.00
          773.43750995  0.0091440529992506
          182.15149714   0.067887577136571
          57.547272758    0.26167978878504
          20.614988935    0.51088040113251
           7.634855789    0.33235475570224
 p    3 1.00
           3.871932799    0.33193859098144
          1.4924724132     0.5553666555499
         0.56061284958    0.23106034201617
 p    1 1.00
              0.134915                   1
 d    4 1.00
          38.968133419   0.033335938558743
          10.800067078    0.17766212505983
          3.6136457999      0.441281781625
          1.2129967888    0.57089200490673
 d    1 1.00
          0.3652439317                   1
 f    1 1.00
                 1.598                   1

4 0
 s    5 1.00
          10449.827566  0.0054265953789407
          1571.7365221   0.040626378128836
          357.12065523    0.18359747852877
          100.25185935    0.47438948768198
          30.812727554    0.43735181104122
 s    3 1.00
          51.923789434  -0.092754154848099
          5.7045760975    0.56380825544207
          2.3508376809    0.50367044629712
 s    1 1.00
         0.44605124672                   1
 s    1 1.00
          0.1684885619                   1
 p    5 1.00
          307.66790569  -0.0088797025588865
          72.102015515  -0.064284071721237
          22.532680262   -0.24288739736006
          7.8991765444   -0.48340836369878
          2.8767268321   -0.38952563875509
 p    1 1.00
         0.77459363955                   1
 p    1 1.00
         0.21037699698                   1
 d    1 1.00
                  0.65                   1

5 0
 s    5 1.00
          10449.827566  0.0054265953789407
          1571.7365221   0.040626378128836
          357.12065523    0.18359747852877
          100.25185935    0.47438948768198
          30.812727554    0.43735181104122
 s    3 1.00
          51.923789434  -0.092754154848099
          5.7045760975    0.56380825544207
          2.3508376809    0.50367044629712
 s    1 1.00
         0.44605124672                   1
 s    1 1.00
          0.1684885619                   1
 p    5 1.00
          307.66790569  -0.0088797025588865
          72.102015515  -0.064284071721237
          22.532680262   -0.24288739736006
          7.8991765444   -0.48340836369878
          2.8767268321   -0.38952563875509
 p    1 1.00
         0.77459363955                   1
 p    1 1.00
         0.21037699698                   1
 d    1 1.00
                  0.65                   1

6 0
 s    5 1.00
          10449.827566  0.0054265953789407
          1571.7365221   0.040626378128836
          357.12065523    0.18359747852877
          100.25185935    0.47438948768198
          30.812727554    0.43735181104122
 s    3 1.00
          51.923789434  -0.092754154848099
          5.7045760975    0.56380825544207
          2.3508376809    0.50367044629712
 s    1 1.00
         0.44605124672                   1
 s    1 1.00
          0.1684885619                   1
 p    5 1.00
          307.66790569  -0.0088797025588865
          72.102015515  -0.064284071721237
          22.532680262   -0.24288739736006
          7.8991765444   -0.48340836369878
          2.8767268321   -0.38952563875509
 p    1 1.00
         0.77459363955                   1
 p    1 1.00
         0.21037699698                   1
 d    1 1.00
                  0.65                   1

7 0
 s    5 1.00
          10449.827566  0.0054265953789407
          1571.7365221   0.040626378128836
          357.12065523    0.18359747852877
          100.25185935    0.47438948768198
          30.812727554    0.43735181104122
 s    3 1.00
          51.923789434  -0.092754154848099
          5.7045760975    0.56380825544207
          2.3508376809    0.50367044629712
 s    1 1.00
         0.44605124672                   1
 s    1 1.00
          0.1684885619                   1
 p    5 1.00
          307.66790569  -0.0088797025588865
          72.102015515  -0.064284071721237
          22.532680262   -0.24288739736006
          7.8991765444   -0.48340836369878
          2.8767268321   -0.38952563875509
 p    1 1.00
         0.77459363955                   1
 p    1 1.00
         0.21037699698                   1
 d    1 1.00
                  0.65                   1

8 0
 s    5 1.00
          10449.827566  0.0054265953789407
          1571.7365221   0.040626378128836
          357.12065523    0.18359747852877
          100.25185935    0.47438948768198
          30.812727554    0.43735181104122
 s    3 1.00
          51.923789434  -0.092754154848099
          5.7045760975    0.56380825544207
          2.3508376809    0.50367044629712
 s    1 1.00
         0.44605124672                   1
 s    1 1.00
          0.1684885619                   1
 p    5 1.00
          307.66790569  -0.0088797025588865
          72.102015515  -0.064284071721237
          22.532680262   -0.24288739736006
          7.8991765444   -0.48340836369878
          2.8767268321   -0.38952563875509
 p    1 1.00
         0.77459363955                   1
 p    1 1.00
         0.21037699698                   1
 d    1 1.00
                  0.65                   1

9 0
 s    5 1.00
          10449.827566  0.0054265953789407
          1571.7365221   0.040626378128836
          357.12065523    0.18359747852877
          100.25185935    0.47438948768198
          30.812727554    0.43735181104122
 s    3 1.00
          51.923789434  -0.092754154848099
          5.7045760975    0.56380825544207
          2.3508376809    0.50367044629712
 s    1 1.00
         0.44605124672                   1
 s    1 1.00
          0.1684885619                   1
 p    5 1.00
          307.66790569  -0.0088797025588865
          72.102015515  -0.064284071721237
          22.532680262   -0.24288739736006
          7.8991765444   -0.48340836369878
          2.8767268321   -0.38952563875509
 p    1 1.00
         0.77459363955                   1
 p    1 1.00
         0.21037699698                   1
 d    1 1.00
                  0.65                   1

[5d]
[7f]
[9g]

[MO]
 Sym= A
 Ene=               0
 Spin= Alpha
 Occup=    1.00000
   1    0.0010935519772174
   2    -0.003252373033123
   3     0.014550931639914
   4    -0.027302215155963
   5     0.012620458446809
   6    0.00037830474502914
   7    0.0024055820006313
   8    -0.0041672927902022
   9    -0.001219025200214
  10    -0.0075091604693288
  11     0.012950683051729
  12    0.0012666609707999
  13      0.00945092929322
  14    -0.018272892501408
  15       0.2701126930117
  16      -0.4647771963983
  17     -0.39968454446677
  18      0.44332746457402
  19      0.35399943170921
  20     0.072534340599343
  21     -0.12477526530381
  22     -0.10837802979257
  23      0.12026910262826
  24     0.094982903115008
  25    0.0011543436764593
  26    -0.0008667768618142
  27    -0.00087155180079875
  28    -0.00020014933886574
  29    -3.2286537729268e-05
  30    0.00085654739518054
  31    0.00079716641738329
  32    0.0018373195410143
  33    0.0047372828822535
  34    0.0029294122046648
  35    0.0080990326499876
  36     0.022584041262568
  37    -0.037934522025366
  38    0.0099454123695284
  39     0.024817998456183
  40    -0.041568066431529
  41    -1.4572899213293e-05
  42    0.0010495826054528
  43    -6.1222531609412e-05
  44    -8.2773508325734e-05
  45    -0.00046648229459051
  46    0.00049535974441887
  47    -0.0014811180457887
  48    0.0065915278081937
  49    -0.0061583225144554
  50    0.00068871947945599
  51    -0.0022850072728798
  52    0.00087107100179093
  53    -0.0007141997019352
  54    0.0073076112072304
  55    -0.0027664062271747
  56    0.0022671835382117
  57    -0.0058537709440723
  58     0.004870614579054
  59    -0.0070218725302615
  60    0.00075854037374319
  61    0.00013762635229148
  62    -4.6616294232843e-05
  63    -0.0015193057675305
  64    0.00026547753962639
  65    0.0010226348735305
  66    -0.0016515794540489
  67    -0.00030646466471131
  68    -0.00057778907501149
  69    0.0013064767139264
  70    3.7593197737207e-05
  71    0.00032285288304385
  72    -1.3960351270704e-06
  73    -5.9187137447663e-05
  74    -0.00010899336383208
  75    -0.00023482043081001
  76    0.0002080300445526
  77    -0.0012820608664197
  78    0.0084106062741871
  79    -0.010743242584899
  80    -0.0060148597018744
  81     0.018752961956071
  82     -0.01091802731422
  83    0.0072447250333171
  84     0.031800056369833
  85    -0.018710350095547
  86     0.012735224737472
  87      0.05246871983046
  88    -0.030507055187004
  89     0.019917851544207
  90    -0.00086131781223829
  91    0.0020967183957252
  92    -0.00064333003361795
  93    0.00065845360929202
  94    -0.001289923809769
  95    -4.904978193663e-05
  96    0.00030902487347825
  97    0.00082557208237512
  98    -0.0042395437095127
  99    -0.0087690926301083
 100    -0.027037928893486
 101    0.0094365348964426
 102    -0.014769573380494
 103    -0.045577980398799
 104      0.01573674798895
 105    -0.023645192590989
 106    -0.077653504458173
 107     0.026433514787389
 108    -0.0010596067352599
 109    0.0013290320641173
 110    0.0016277669448204
 111    -0.0018954634545387
 112    -0.0014124121625973
 113    0.00031971571511995
 114    -0.0021119173951979
 115    0.0041091223031789
 116    -0.0023079909914925
 117    -0.015288053256022
 118    0.0067108000182937
 119       0.0201477049491
 120    -0.025660146125601
 121     0.011273537320102
 122     0.033814835510903
 123    -0.042787234982954
 124      0.02007681743585
 125     0.056951222969024
 126    -0.00081911705270882
 127    0.0012696714292135
 128    0.0013423199831979
 129    -0.0017605718508633
 130    -0.00099221735123207
 131    0.00018049276104798
 132    -0.0012212890573063
 133    0.0023601047248893
 134    0.00081283706497022
 135    0.0011588640276538
 136    -0.00085124653470188
 137    -0.00050675545137158
 138    0.0021681222823526
 139    -0.001464731893055
 140    -0.000895682819127
 141    0.0027072665154652
 142    -0.0030871372893301
 143    -0.0019378044231618
 144    9.5891258080419e-05
 145    0.00022546619336065
 146    -5.7058453711724e-05
 147    -0.00012360933223246
 148    0.00022512730227172
 149    -8.9133489449644e-05
 150    0.00058850163142525
 151    -0.00055895709457115
 152    -0.0030436675512621
 153    -0.0011970124210063
 154    -0.00015438555098567
 155    0.00059645399756141
 156    -0.0020816978983479
 157    -0.00029670358075319
 158    0.0010899787777992
 159    -0.0039363425979872
 160    0.0004046524512724
 161    0.00018356845388682
 162    -4.6171926977258e-05
 163    -0.00012527499091507
 164    4.1881216131368e-05
 165    8.7023569567708e-05
 166    4.3093736693591e-05
 167    0.00014685267710322
 168    -0.00098557014520286
 169    0.0018336316766314
 170    0.00051121240924578
 171    0.0012420772199026
 172    0.00056291082426455
 173    0.00066932119891673
 174    0.0022428009425968
 175     0.001004429020853
 176    0.0010852936705492
 177    0.0032408755798485
 178    0.0017170383653859
 179    0.0024639980721754
 180     0.000121743316614
 181    -9.3283972163185e-05
 182    1.9687534295385e-05
 183    -0.00018116661117639
 184    -0.00021226151536164
 Sym= A
 Ene=               1
 Spin= Alpha
 Occup=    1.00000
   1    -0.00097613521959833
   2    0.0029034943724836
   3    -0.012981436445652
   4     0.024799929966376
   5    -0.0093805618500302
   6    0.00015528177567681
   7    0.0062393969042684
   8    0.0038665571137823
   9    -0.00050134241306314
  10    -0.019154184076164
  11    -0.011821910458715
  12    0.0018171484551211
  13     0.025775277416857
  14     0.017712835598921
  15      0.49711682574758
  16      0.23911639314845
  17      0.52099152418904
  18     0.070043870931979
  19      0.43590958200806
  20      0.13361711131415
  21     0.063474992695428
  22      0.14024314522821
  23     0.018173468671578
  24       0.1159772667659
  25    0.00041884731008597
  26    0.0015041065659108
  27    0.00068688217882526
  28    0.00075192917771239
  29    0.0016916541375807
  30    -1.986328376081e-05
  31    0.0013403925517928
  32    -0.0028133408550837
  33    -0.007130519562119
  34    -0.0040636243115368
  35    -0.011120616781795
  36     0.061292812595611
  37     0.043680429744923
  38    -0.013684075221739
  39     0.066868109345056
  40     0.048084515174788
  41    0.00054701668338061
  42    -0.001448913869552
  43    0.00099157548320762
  44    0.00054994964893376
  45    -0.0016186789532899
  46    -0.0006446618714768
  47    0.0019139827441537
  48    -0.0086366129470434
  49    0.0092703105329023
  50    -0.0019051175366236
  51    0.0027464445469448
  52    0.0020719409437025
  53    0.00058264871462592
  54    -0.0087871709413896
  55    -0.0065792158780865
  56    -0.0018501523492274
  57    0.0064236496033315
  58     0.012119728939543
  59    0.0076078721065866
  60    -0.00098067585037541
  61    -0.00059035269984588
  62    5.8515412674444e-05
  63    0.0017383283390262
  64    0.00041801167921507
  65    -0.0011871885134556
  66    0.0019429142912648
  67    -0.00092617700883809
  68    0.00052605813025963
  69    0.0038581319492075
  70    -1.8494113206036e-05
  71    -0.0003704831255715
  72    -0.00013621402690347
  73    0.00010786622438893
  74    -0.00030726741083991
  75    0.00030017838339516
  76    0.00057748636619659
  77    0.00020930139731875
  78    -0.0013687953755406
  79     0.001238242279045
  80    0.0013270049157916
  81    2.8713726127827e-05
  82    -0.021893857282664
  83    -0.014598827823336
  84    8.2941321196583e-06
  85    -0.036894355919885
  86     -0.02480652888193
  87    0.00017640670462538
  88    -0.062730516659259
  89     -0.04149573354067
  90    -0.002500231916689
  91    8.5352918435582e-05
  92    -0.0012327397913252
  93    -0.0015366353827032
  94    0.00011579437964611
  95    -0.00036729986241114
  96    0.0024635194840169
  97    -0.0049997861529075
  98    0.0043090329950947
  99     0.017299570252399
 100    -0.0057984239182533
 101     0.013077650521565
 102     0.029348359468225
 103    -0.0097054473151548
 104     0.022015417883835
 105     0.046697192412688
 106    -0.016586191428201
 107     0.038048955163455
 108    -0.0022964414461834
 109    -0.00022368408839437
 110    -0.00022804535555442
 111    0.0011839482010007
 112    -0.001084317622714
 113    0.0010961801992009
 114    -0.0071805668468752
 115    0.0092648491682817
 116    0.0041666797129238
 117    -0.013788016385429
 118    -0.010477882129879
 119    -0.010522794277899
 120    -0.023304232332611
 121    -0.017930605526923
 122    -0.017643215251182
 123    -0.038472926307841
 124    -0.029350480166174
 125     -0.03030604739385
 126    0.0010909766358953
 127    4.9672620242322e-05
 128    -0.0013667891902892
 129    -0.00060039633570951
 130    -0.0010589470820225
 131    -0.00032010836403788
 132    0.0021182314404688
 133    -0.0029134780101727
 134    -0.0053063147927445
 135    -0.0026121603688545
 136    0.00012446621074122
 137    0.0020485710529261
 138    -0.0045928243824098
 139    0.00016005206663677
 140    0.0034799681267201
 141    -0.0070084718945113
 142     0.001707738253117
 143    0.0082606641032567
 144    -4.6730841839966e-05
 145    -0.00053483861594536
 146    -4.3568299494006e-05
 147    0.00029194269503126
 148    -0.00011703544274244
 149    -8.6086793049169e-05
 150    0.00057778297860634
 151    -0.0011893913689071
 152    0.00039345507340464
 153    -0.00070348494205066
 154    -0.00041665517373903
 155    -0.00090601950716869
 156    -0.001271906165462
 157    -0.00058333658105982
 158    -0.0014876743869336
 159    -0.0018045154145594
 160    -0.0022761810821211
 161    -0.0028312775727976
 162    -0.00016369300031373
 163    0.0001415977078513
 164    -2.1454191263136e-05
 165    0.00010996914209617
 166    5.4857648992243e-06
 167    0.00024091559775163
 168    -0.0015991880641517
 169    0.0022798472836862
 170    0.0040467998983169
 171    0.0028221657525911
 172    0.00072228482087325
 173    -0.00095920033033476
 174    0.0050481764791972
 175    0.0012011854053196
 176    -0.0017028966213723
 177    0.0071960987356507
 178    0.0040980381160013
 179    -0.0019021043029573
 180    8.1967059660863e-05
 181    0.0002293150775664
 182    0.00016126103728712
 183    -0.00045155092408683
 184    -0.00011330659527682
 Sym= A
 Ene=               2
 Spin= Alpha
 Occup=    1.00000
   1    0.00062367374612725
   2    -0.0018547784064593
   3    0.0083063354330762
   4    -0.011327494951445
   5    -0.0011339603850491
   6    0.0020530808866426
   7    0.0045165115252043
   8    -0.0043456014161607
   9    -0.0063624616490811
  10    -0.014297366843731
  11     0.013825376751971
  12    0.0060972976572682
  13    0.0087186502633242
  14    -0.007469192617289
  15      0.55549837785003
  16      0.35276098576583
  17     -0.31465569832183
  18      0.11753821228314
  19     -0.47152630345138
  20      0.14563223415597
  21     0.091026940950015
  22    -0.082435775505281
  23     0.032073972335416
  24     -0.12187672568382
  25    0.00023956107810107
  26    0.0017488889922941
  27    3.3024325795439e-05
  28    0.0015226772489906
  29    -0.0013627680666379
  30    -0.00020650052254123
  31    -0.0018533164779152
  32    -0.0045310887775984
  33    -0.011036882305932
  34    -0.0084167881390807
  35     -0.02075876780431
  36    -0.069963526515781
  37     0.060872439831971
  38    -0.025768492878684
  39    -0.077728429028688
  40     0.067147628571505
  41    0.00058218228590696
  42    -0.0020007304717049
  43    -0.0010048155919826
  44    0.0010642277092911
  45    0.0018732714172335
  46    -0.00096558639001945
  47    0.0028632598811018
  48    -0.012957652520492
  49     0.012835629433407
  50    -0.0042183313090281
  51    0.0042450524296311
  52    -0.0025789418450082
  53    0.0010011029943622
  54    -0.013630230167151
  55    0.0081897229297372
  56    -0.0031895610122386
  57     0.011856279630526
  58    -0.014444915023889
  59     0.012392335373112
  60    -0.0014491921292313
  61    -0.0010780483343896
  62    0.00016926156535487
  63     0.002923077594653
  64    -0.00051835911199812
  65    -0.0017926361048563
  66    0.0027204204894403
  67    0.0014001130795126
  68    0.0016704387816314
  69    -0.0043474942433215
  70    -1.9744313082344e-05
  71    -0.00054191127161839
  72    6.0425734462643e-05
  73    1.2404122506025e-05
  74    0.00035256042366345
  75     0.000434732728488
  76    -0.00065773878594672
  77    -0.0036965985867508
  78     0.024220809062777
  79    -0.030171613163902
  80    -0.030212626265231
  81    -0.0099590041697361
  82    -0.027667143568923
  83     0.030206219514359
  84    -0.016624645237804
  85    -0.047094845883483
  86     0.051829322451841
  87    -0.028256707926665
  88    -0.082514271594989
  89     0.092287496268103
  90    -0.0011677689746306
  91    -0.0018075621234258
  92    4.3272796958795e-05
  93    4.747276655089e-06
  94    0.00038586032137064
  95    0.0004248224200558
  96    -0.0027539166350421
  97    0.0029723244096429
  98    0.0050846837733455
  99    -0.00066538440776164
 100    -0.0058555789965979
 101     0.010740136454558
 102    -0.0011584720413695
 103    -0.010086958255651
 104     0.018294216446331
 105    -0.0025736674656683
 106    -0.015450108304772
 107     0.030556032157174
 108    -0.00081684035405084
 109    0.00048974729452891
 110    0.00034622929328156
 111    -0.00043288163428281
 112    -0.0015693977079579
 113    0.0028982430385685
 114    -0.018867397077586
 115     0.022757078812654
 116     0.025505092652583
 117    0.00058634878571961
 118    -0.029133079495003
 119     0.022400167807462
 120    0.00074861396886073
 121    -0.049169847086896
 122     0.037471132252282
 123    0.00033946712539445
 124    -0.087850218684301
 125     0.065509017866703
 126    -0.00075975992158298
 127    0.00028117367348187
 128    0.00021761891367834
 129    -0.0010738891307997
 130    0.0019923598718316
 131    -0.00015044842974169
 132    0.0010041808542344
 133    -0.0014869354446344
 134    -0.0021790432533384
 135    -0.00031933036403635
 136    0.0014841477611458
 137    0.00040035251848547
 138    -0.00054147686820388
 139    0.0023547690761572
 140    0.00073036330076936
 141    -0.0016970913164799
 142    0.0061249025040779
 143    0.0016660649420405
 144    -4.2683771223173e-05
 145    -0.0002749435910124
 146    0.00011285777783895
 147    3.5962689141663e-05
 148    -0.00027759460004899
 149    0.0001846841610914
 150    -0.0012136816159579
 151    0.0010404718808044
 152    0.0066600293258531
 153    0.0026176353800053
 154    0.00053720656746723
 155    -0.00087613046065052
 156    0.0045678765496514
 157    0.00097546907276994
 158    -0.0016909891825323
 159    0.0083607346854319
 160    -3.8132813058753e-05
 161    0.00089378361744903
 162    0.00011969314111952
 163    0.00026624179365575
 164    -0.00010660087769889
 165    -0.00016213483242177
 166    -0.00015068571901423
 167    -0.00039411510973367
 168    0.0026345678841293
 169    -0.0045173143555315
 170    -0.0029078336646383
 171    -0.0033411222991641
 172    -0.001503551032524
 173    -0.0009291801059577
 174    -0.0059070647311871
 175    -0.0026750047552168
 176    -0.001402259280323
 177    -0.009456588180276
 178    -0.0051826490661414
 179    -0.0043059952809866
 180    -0.00034554521906634
 181    8.280929729589e-05
 182    -0.00010529803785055
 183    0.00047846728453522
 184    0.00057296729752089
 Sym= A
 Ene=               3
 Spin= Alpha
 Occup=    1.00000
   1    0.00070486418454424
   2    -0.0021340510579306
   3    0.0092159838286994
   4    -0.0096137058950139
   5    -0.0065821698368275
   6    0.0086408990830147
   7    -0.0079549189511324
   8    -0.0069105681909967
   9    -0.026894109994616
  10     0.024891686731848
  11     0.021767136123267
  12     0.025620406742583
  13     -0.02760594586111
  14    -0.025216640609152
  15     -0.14773706985516
  16      0.51503168196062
  17     -0.46295055951858
  18     -0.16971162550909
  19      0.47622035285974
  20    -0.041482698498718
  21      0.13366507906326
  22     -0.12199451103051
  23     -0.04143537355529
  24       0.1219581656324
  25    -0.0012444528657848
  26    0.0014497913566673
  27    -0.0010877343807625
  28    0.00099903081488502
  29    0.0011195599746725
  30    6.0867479521235e-05
  31    0.0012470162390101
  32    -0.0079431732663916
  33    -0.017470160610661
  34    -0.019257547413665
  35    -0.035532525127277
  36     0.048253963792512
  37     0.046168957168053
  38    -0.044837252746791
  39     0.054738269495832
  40      0.05044936170237
  41    -0.00015936853093289
  42    -0.0016134670817548
  43    0.00028616168102324
  44    0.00097496053989466
  45    -0.0011042392544779
  46    -0.0011998482567046
  47    0.0035266434903667
  48    -0.016244381150378
  49      0.01547537056348
  50    0.0021828304631179
  51    0.0047205799001525
  52    0.0017571035257413
  53    9.0548572800384e-05
  54    -0.015249546168844
  55    -0.0056023258690278
  56    -0.00030194569067004
  57     0.013668441560141
  58     0.011173306601355
  59    0.0097234719533973
  60    -0.0018455531465816
  61    -0.0017472288003221
  62    0.00011090868344177
  63    0.0038872732682429
  64    0.00062998642409034
  65    -0.0014732851171562
  66    0.0016294367494049
  67    -0.00028512993988064
  68    0.0014157444177353
  69    0.0028315370351988
  70    0.00010120744347426
  71    -0.00038941908331357
  72    -0.00011939670256326
  73    -8.8222268150001e-05
  74    -0.00024200869990877
  75    0.00043178390280479
  76    0.00042361436771441
  77    -0.0018791102144625
  78     0.012390994428574
  79    -0.017306636798038
  80    -0.010322992632734
  81    -0.0067906068146479
  82    0.0046168838338512
  83     0.025323250379283
  84    -0.011460303617773
  85    0.0076568756578085
  86     0.043677112755966
  87    -0.019691585102934
  88      0.01211320496602
  89     0.073209168283715
  90    0.0017080548878344
  91    -0.00045504633140856
  92    0.0011498928569753
  93    0.00099719498120324
  94    0.0013721399302809
  95    0.0057542081984113
  96     -0.03775912398471
  97     0.050258687166021
  98     0.037848726061271
  99    -0.032686934865815
 100     0.028089318866971
 101     0.041932600949121
 102    -0.056211479071514
 103     0.048307322973669
 104     0.071733196010319
 105    -0.095058344679623
 106      0.08173626682051
 107      0.12287192427783
 108    0.0012233019036807
 109    -0.001518458013353
 110    0.00089910534913183
 111    0.00085236907484258
 112    -0.00046859513902933
 113    -0.0032920239443443
 114     0.021584875678555
 115    -0.029119513619426
 116    -0.020200269695775
 117    0.0029726650633312
 118     0.036017923717411
 119    -0.00064685090143796
 120    0.0053938012173301
 121     0.061287795881932
 122    -0.00098015994130545
 123    0.0080003141645813
 124      0.10611170330592
 125    -0.0027994594736922
 126    -0.00035602079401983
 127    0.0011024596913559
 128     0.002064067910468
 129    -0.00014810747945597
 130    -0.0011576879102387
 131    -0.00027681053134086
 132    0.0018192300243467
 133    -0.0016484053143785
 134    -0.0083658832452764
 135    -0.00056945860909239
 136    0.00037046844891693
 137    0.0015511865370545
 138    -0.0011206878562138
 139    0.00053931233120859
 140    0.0024408634317337
 141    -0.0021610453130829
 142    0.0030325171059231
 143     0.008407358396039
 144    8.658202661851e-05
 145    -0.00061670245567716
 146    -1.1341690844655e-05
 147    0.00017351007905792
 148    -0.00024500033400396
 149    -0.00014471191108983
 150    0.00095595607227385
 151    -0.0017103046887895
 152    6.017984826823e-05
 153    -0.00092240495783432
 154    -0.00013903897767056
 155    -0.0010848012018074
 156    -0.0016982776435845
 157    4.5447689383213e-06
 158    -0.0018785442856414
 159    -0.0021630234892733
 160    -0.0022882480241561
 161    -0.002533561143567
 162    -0.00022337086303237
 163    0.00030459519043725
 164    -8.6779103043052e-05
 165    0.00024402387071182
 166    -0.00014275456218126
 167    9.5389121328688e-05
 168    -0.00065071474612192
 169     0.001043999141284
 170    0.0021005052519917
 171    0.0017510462039267
 172    1.1399799767546e-05
 173    -0.0009910668632699
 174    0.0032011740858212
 175    -0.00013911066138215
 176    -0.0016979883813154
 177     0.003976230536041
 178    0.0025320391216238
 179    -0.0023433179879361
 180    -7.2484849375424e-05
 181    0.00019892763777531
 182    0.00012177814911899