[Molden Format]
made by pyscf v[2.1.1]
[Atoms] (AU)
Fe   1   26     3.17068844873907     0.00098706064664     0.12237737881307
O   2   8     0.00000000000000     0.00000000000000    -0.89004350580623
Fe   3   26    -3.17068844873907    -0.00098706064664     0.12237737881307
Cl   4   17     3.53383895113107    -2.07485195383062     3.76228752659000
Cl   5   17     5.54152580550813    -1.85590924879884    -2.78672786652360
Cl   6   17     4.48169216485503     3.92976278472880    -0.95330240907949
Cl   7   17    -3.53383895113107     2.07485195383062     3.76228752659000
Cl   8   17    -5.54152580550813     1.85590924879884    -2.78672786652360
Cl   9   17    -4.48169216485503    -3.92976278472880    -0.95330240907949
[GTO]
1 0
 s    6 1.00
          60923.640643  0.0017552243692958
          9147.8893982   0.013449023284001
          2081.3505927   0.066678874640978
          587.55977067    0.23176348548844
           191.0904399    0.46945550248188
          65.732730112     0.3596824938678
 s    3 1.00
          127.25891928   -0.10723431835929
           14.83091301    0.62971616328466
          6.0653307408    0.44472317896179
 s    3 1.00
           10.44994371   -0.21694289195548
          1.7245228003    0.69457867408393
         0.71772177325    0.43298308896347
 s    1 1.00
        0.091449828308                   1
 s    1 1.00
        0.033706691021                   1
 p    5 1.00
          773.43750995  0.0091440529992506
          182.15149714   0.067887577136571
          57.547272758    0.26167978878504
          20.614988935    0.51088040113251
           7.634855789    0.33235475570224
 p    3 1.00
           3.871932799    0.33193859098144
          1.4924724132     0.5553666555499
         0.56061284958    0.23106034201617
 p    1 1.00
              0.134915                   1
 d    4 1.00
          38.968133419   0.033335938558743
          10.800067078    0.17766212505983
          3.6136457999      0.441281781625
          1.2129967888    0.57089200490673
 d    1 1.00
          0.3652439317                   1
 f    1 1.00
                 1.598                   1

2 0
 s    5 1.00
          2266.1767785  -0.0053893503921743
          340.87010191   -0.04023472138896
          77.363135167   -0.18008184205526
           21.47964494   -0.46828857657651
          6.6589433124   -0.44692617160187
 s    1 1.00
         0.80975975668                   1
 s    1 1.00
         0.25530772234                   1
 p    3 1.00
          17.721504317   0.062630248763161
           3.863550544    0.33331138482352
          1.0480920883    0.74148638308122
 p    1 1.00
         0.27641544411                   1
 d    1 1.00
                   1.2                   1

3 0
 s    6 1.00
          60923.640643  0.0017552243692958
          9147.8893982   0.013449023284001
          2081.3505927   0.066678874640978
          587.55977067    0.23176348548844
           191.0904399    0.46945550248188
          65.732730112     0.3596824938678
 s    3 1.00
          127.25891928   -0.10723431835929
           14.83091301    0.62971616328466
          6.0653307408    0.44472317896179
 s    3 1.00
           10.44994371   -0.21694289195548
          1.7245228003    0.69457867408393
         0.71772177325    0.43298308896347
 s    1 1.00
        0.091449828308                   1
 s    1 1.00
        0.033706691021                   1
 p    5 1.00
          773.43750995  0.0091440529992506
          182.15149714   0.067887577136571
          57.547272758    0.26167978878504
          20.614988935    0.51088040113251
           7.634855789    0.33235475570224
 p    3 1.00
           3.871932799    0.33193859098144
          1.4924724132     0.5553666555499
         0.56061284958    0.23106034201617
 p    1 1.00
              0.134915                   1
 d    4 1.00
          38.968133419   0.033335938558743
          10.800067078    0.17766212505983
          3.6136457999      0.441281781625
          1.2129967888    0.57089200490673
 d    1 1.00
          0.3652439317                   1
 f    1 1.00
                 1.598                   1

4 0
 s    5 1.00
          10449.827566  0.0054265953789407
          1571.7365221   0.040626378128836
          357.12065523    0.18359747852877
          100.25185935    0.47438948768198
          30.812727554    0.43735181104122
 s    3 1.00
          51.923789434  -0.092754154848099
          5.7045760975    0.56380825544207
          2.3508376809    0.50367044629712
 s    1 1.00
         0.44605124672                   1
 s    1 1.00
          0.1684885619                   1
 p    5 1.00
          307.66790569  -0.0088797025588865
          72.102015515  -0.064284071721237
          22.532680262   -0.24288739736006
          7.8991765444   -0.48340836369878
          2.8767268321   -0.38952563875509
 p    1 1.00
         0.77459363955                   1
 p    1 1.00
         0.21037699698                   1
 d    1 1.00
                  0.65                   1

5 0
 s    5 1.00
          10449.827566  0.0054265953789407
          1571.7365221   0.040626378128836
          357.12065523    0.18359747852877
          100.25185935    0.47438948768198
          30.812727554    0.43735181104122
 s    3 1.00
          51.923789434  -0.092754154848099
          5.7045760975    0.56380825544207
          2.3508376809    0.50367044629712
 s    1 1.00
         0.44605124672                   1
 s    1 1.00
          0.1684885619                   1
 p    5 1.00
          307.66790569  -0.0088797025588865
          72.102015515  -0.064284071721237
          22.532680262   -0.24288739736006
          7.8991765444   -0.48340836369878
          2.8767268321   -0.38952563875509
 p    1 1.00
         0.77459363955                   1
 p    1 1.00
         0.21037699698                   1
 d    1 1.00
                  0.65                   1

6 0
 s    5 1.00
          10449.827566  0.0054265953789407
          1571.7365221   0.040626378128836
          357.12065523    0.18359747852877
          100.25185935    0.47438948768198
          30.812727554    0.43735181104122
 s    3 1.00
          51.923789434  -0.092754154848099
          5.7045760975    0.56380825544207
          2.3508376809    0.50367044629712
 s    1 1.00
         0.44605124672                   1
 s    1 1.00
          0.1684885619                   1
 p    5 1.00
          307.66790569  -0.0088797025588865
          72.102015515  -0.064284071721237
          22.532680262   -0.24288739736006
          7.8991765444   -0.48340836369878
          2.8767268321   -0.38952563875509
 p    1 1.00
         0.77459363955                   1
 p    1 1.00
         0.21037699698                   1
 d    1 1.00
                  0.65                   1

7 0
 s    5 1.00
          10449.827566  0.0054265953789407
          1571.7365221   0.040626378128836
          357.12065523    0.18359747852877
          100.25185935    0.47438948768198
          30.812727554    0.43735181104122
 s    3 1.00
          51.923789434  -0.092754154848099
          5.7045760975    0.56380825544207
          2.3508376809    0.50367044629712
 s    1 1.00
         0.44605124672                   1
 s    1 1.00
          0.1684885619                   1
 p    5 1.00
          307.66790569  -0.0088797025588865
          72.102015515  -0.064284071721237
          22.532680262   -0.24288739736006
          7.8991765444   -0.48340836369878
          2.8767268321   -0.38952563875509
 p    1 1.00
         0.77459363955                   1
 p    1 1.00
         0.21037699698                   1
 d    1 1.00
                  0.65                   1

8 0
 s    5 1.00
          10449.827566  0.0054265953789407
          1571.7365221   0.040626378128836
          357.12065523    0.18359747852877
          100.25185935    0.47438948768198
          30.812727554    0.43735181104122
 s    3 1.00
          51.923789434  -0.092754154848099
          5.7045760975    0.56380825544207
          2.3508376809    0.50367044629712
 s    1 1.00
         0.44605124672                   1
 s    1 1.00
          0.1684885619                   1
 p    5 1.00
          307.66790569  -0.0088797025588865
          72.102015515  -0.064284071721237
          22.532680262   -0.24288739736006
          7.8991765444   -0.48340836369878
          2.8767268321   -0.38952563875509
 p    1 1.00
         0.77459363955                   1
 p    1 1.00
         0.21037699698                   1
 d    1 1.00
                  0.65                   1

9 0
 s    5 1.00
          10449.827566  0.0054265953789407
          1571.7365221   0.040626378128836
          357.12065523    0.18359747852877
          100.25185935    0.47438948768198
          30.812727554    0.43735181104122
 s    3 1.00
          51.923789434  -0.092754154848099
          5.7045760975    0.56380825544207
          2.3508376809    0.50367044629712
 s    1 1.00
         0.44605124672                   1
 s    1 1.00
          0.1684885619                   1
 p    5 1.00
          307.66790569  -0.0088797025588865
          72.102015515  -0.064284071721237
          22.532680262   -0.24288739736006
          7.8991765444   -0.48340836369878
          2.8767268321   -0.38952563875509
 p    1 1.00
         0.77459363955                   1
 p    1 1.00
         0.21037699698                   1
 d    1 1.00
                  0.65                   1

[5d]
[7f]
[9g]

[MO]
 Sym= A
 Ene=               0
 Spin= Alpha
 Occup=    1.00000
   1    -0.032772531738782
   2     0.097258341481636
   3     -0.44430738766557
   4    -0.078987876712265
   5     0.060772339520427
   6     -0.12660170694862
   7    6.7696399973868e-05
   8    -0.049609979612736
   9      0.42564490796053
  10    -0.00020476174142655
  11      0.16476868220039
  12    -0.038172229193906
  13    -0.0052404818685107
  14    0.0026928009605615
  15    -0.024964370956863
  16      0.04492055836875
  17    0.0064201677200913
  18     0.060703204139544
  19    -0.00061777107355924
  20    -0.013090223442199
  21     0.024319228110611
  22    0.0034646577038086
  23     0.033294755843079
  24    -0.00054422312313676
  25    0.0002917985051346
  26    0.00010047844723616
  27    0.00098707695489544
  28    -0.0010984452579616
  29    -0.00017771744583597
  30    -0.00066238939909333
  31    0.00045311134302329
  32    8.4487548970837e-18
  33    2.423311441212e-17
  34    8.1016740580145e-18
  35      0.11811821506609
  36    0.0013624643122539
  37    -4.1767211186621e-17
  38      0.10222516280777
  39    0.0024988141912582
  40    -3.7545910215083e-17
  41    -9.6432882194776e-19
  42    0.0027410343334229
  43    0.00011600664362126
  44    1.2488637617506e-19
  45    -9.5780582445346e-21
  46     0.032772531738782
  47    -0.097258341481636
  48      0.44430738766557
  49     0.078987876712265
  50    -0.060772339520427
  51     -0.12660170694862
  52    6.7696399973872e-05
  53     0.049609979612736
  54      0.42564490796053
  55    -0.00020476174142656
  56     -0.16476868220039
  57    -0.038172229193906
  58    -0.0052404818685107
  59    -0.0026928009605615
  60     0.024964370956863
  61      0.04492055836875
  62    0.0064201677200913
  63    -0.060703204139544
  64    0.00061777107355925
  65     0.013090223442199
  66     0.024319228110611
  67    0.0034646577038086
  68    -0.033294755843079
  69    0.00054422312313676
  70    -0.0002917985051346
  71    0.00010047844723616
  72    0.00098707695489544
  73    0.0010984452579616
  74    0.00017771744583597
  75    -0.00066238939909333
  76    0.00045311134302329
  77    -0.0025261196606015
  78     0.015826625346824
  79    -0.017539846497632
  80     -0.01763237960073
  81     0.017520730815485
  82    -0.010569102299094
  83     0.025075887857179
  84     0.029999122226639
  85    -0.017775933956896
  86     0.042424174013733
  87     0.045544769776614
  88    -0.024754828257731
  89     0.060141144039118
  90    -0.0035026513540893
  91    -0.001761568974497
  92    0.0034676336730852
  93    0.0011916384483617
  94    0.0011761251747098
  95    -0.0043162875853609
  96     0.027290896309345
  97    -0.034020942678159
  98    -0.020580506608397
  99     0.047679737043891
 100    -0.012745739837373
 101    -0.011905540727829
 102     0.081124439982722
 103    -0.022111676956899
 104    -0.020269304830473
 105      0.11944100606125
 106    -0.025613099107574
 107    -0.022407454737631
 108    -0.00024943751234045
 109    0.0058219487488754
 110    -0.0028099144766685
 111    -0.0010703785322881
 112     0.003620694172411
 113    -0.0048823636830264
 114     0.031016748276993
 115    -0.039553102400383
 116    -0.024595728491118
 117     0.038293414138016
 118     0.036535804325024
 119    -0.00056832193810426
 120     0.065479742179119
 121     0.062576389188574
 122    -0.00052619576850782
 123     0.098943780841308
 124     0.084434042557155
 125    -8.4360142035709e-05
 126    0.0027048324788831
 127    0.0018064436648426
 128    0.0023987761990579
 129    0.0047548410687776
 130    -0.0044772347858281
 131    0.0025261196606019
 132    -0.015826625346824
 133     0.017539846497632
 134      0.01763237960073
 135     0.017520730815485
 136    -0.010569102299094
 137    -0.025075887857179
 138     0.029999122226639
 139    -0.017775933956896
 140    -0.042424174013733
 141     0.045544769776615
 142    -0.024754828257731
 143    -0.060141144039118
 144    0.0035026513540893
 145    -0.001761568974497
 146    0.0034676336730852
 147    -0.0011916384483617
 148    -0.0011761251747098
 149    0.0043162875853609
 150    -0.027290896309345
 151     0.034020942678159
 152     0.020580506608397
 153     0.047679737043891
 154    -0.012745739837373
 155     0.011905540727829
 156     0.081124439982722
 157    -0.022111676956899
 158     0.020269304830473
 159      0.11944100606125
 160    -0.025613099107574
 161     0.022407454737631
 162    0.00024943751234044
 163    0.0058219487488754
 164    -0.0028099144766685
 165    0.0010703785322881
 166    -0.003620694172411
 167    0.0048823636830264
 168    -0.031016748276993
 169     0.039553102400383
 170     0.024595728491118
 171     0.038293414138016
 172     0.036535804325024
 173    0.00056832193810426
 174     0.065479742179119
 175     0.062576389188574
 176    0.00052619576850782
 177     0.098943780841308
 178     0.084434042557155
 179    8.4360142035716e-05
 180    -0.0027048324788831
 181    0.0018064436648426
 182    0.0023987761990579
 183    -0.0047548410687776
 184    0.0044772347858281
 Sym= A
 Ene=               1
 Spin= Alpha
 Occup=    1.00000
   1    -0.010454159548674
   2     0.031238131811778
   3     -0.14085002793561
   4    -0.054992840060376
   5     0.014460511761784
   6    -0.056723180759854
   7    -0.010866425799839
   8    0.0057021710335134
   9       0.1864459536543
  10     0.033407917364914
  11    -0.015055495757096
  12     0.012218701753723
  13    -0.031895946343738
  14    -0.071105058596101
  15    -0.0082222091679392
  16    -0.029772474162569
  17     0.080249580347812
  18     0.053334206972337
  19    -0.040410234178955
  20    -0.0065635566910353
  21      -0.0203797881182
  22     0.052741340241938
  23     0.034068379891483
  24    -0.027081281530812
  25    -0.00015044524493175
  26    0.0011920688092965
  27    0.0012358571536839
  28    -0.00015303890181962
  29      0.00175253264513
  30    -3.7497004892324e-06
  31    -0.00040391809692452
  32     0.033515032733091
  33     0.067365465427381
  34     0.060525647798528
  35    4.9570409963812e-17
  36    -1.6312738493359e-16
  37     0.019364237913767
  38    2.3655545107977e-17
  39    -2.651081095302e-16
  40     0.028505383334338
  41    -0.00035543062385363
  42    6.7161568229016e-18
  43    -8.7534579973837e-18
  44     0.001632584313878
  45    -0.0007498987109667
  46    -0.010454159548674
  47     0.031238131811777
  48     -0.14085002793561
  49    -0.054992840060376
  50     0.014460511761784
  51     0.056723180759854
  52     0.010866425799839
  53    0.0057021710335131
  54      -0.1864459536543
  55    -0.033407917364913
  56    -0.015055495757095
  57    -0.012218701753724
  58      0.03189594634374
  59    -0.071105058596102
  60    -0.0082222091679385
  61      0.02977247416257
  62    -0.080249580347813
  63     0.053334206972338
  64    -0.040410234178956
  65    -0.0065635566910348
  66     0.020379788118201
  67    -0.052741340241939
  68     0.034068379891483
  69    -0.027081281530813
  70    -0.00015044524493175
  71    -0.0011920688092965
  72    -0.0012358571536839
  73    -0.00015303890181964
  74      0.00175253264513
  75    3.7497004892118e-06
  76    0.00040391809692452
  77    -0.0082330940408342
  78     0.051881995783919
  79    -0.068768019805661
  80    -0.025385789551655
  81      0.03806393982337
  82    -0.024533977191431
  83       0.0948974234978
  84     0.064818682483048
  85    -0.041604752857978
  86      0.16073354754983
  87     0.095747984114336
  88    -0.050243632261902
  89      0.22834905606185
  90    -0.0095994759583656
  91    -0.0039537564378574
  92     0.010460668617806
  93    0.0025762778697125
  94    0.0018705194167507
  95    0.0080928347402641
  96    -0.051346882105577
  97      0.07291021760931
  98      0.01817165170502
  99    -0.056019299581137
 100     0.043593608365503
 101     0.065620674577902
 102     -0.09542308108418
 103     0.073847501600864
 104      0.11032730711077
 105       -0.131134399389
 106      0.10521046797383
 107      0.15902522577378
 108    0.0044783076411294
 109    -0.0088308445602729
 110    0.0069495928755185
 111    0.0026891452693273
 112    -0.0046892379075924
 113    -0.0044991136526318
 114     0.028183294659839
 115    -0.036517317628737
 116    -0.016841782430869
 117     0.024291141604811
 118      0.06771295465094
 119    -0.0049597055032902
 120     0.040951905381722
 121      0.11366445706853
 122    -0.0084359884461369
 123     0.057693537249083
 124      0.16773524747043
 125    -0.0058093326101832
 126    0.0033004598071262
 127    0.0013007069473111
 128    0.0055294136069283
 129    0.0055528022499629
 130    -0.0056395414060832
 131    -0.0082330940408342
 132     0.051881995783919
 133    -0.068768019805661
 134    -0.025385789551655
 135     -0.03806393982337
 136     0.024533977191431
 137       0.0948974234978
 138    -0.064818682483048
 139     0.041604752857978
 140      0.16073354754983
 141    -0.095747984114335
 142     0.050243632261901
 143      0.22834905606185
 144    -0.0095994759583656
 145    0.0039537564378574
 146    -0.010460668617806
 147    0.0025762778697125
 148    0.0018705194167506
 149    0.0080928347402643
 150    -0.051346882105578
 151     0.072910217609312
 152     0.018171651705021
 153     0.056019299581139
 154    -0.043593608365504
 155     0.065620674577904
 156     0.095423081084182
 157    -0.073847501600866
 158      0.11032730711077
 159        0.131134399389
 160     -0.10521046797383
 161      0.15902522577378
 162    0.0044783076411295
 163    0.0088308445602731
 164    -0.0069495928755187
 165    0.0026891452693274
 166    -0.0046892379075925
 167    -0.004499113652632
 168      0.02818329465984
 169    -0.036517317628739
 170    -0.016841782430869
 171    -0.024291141604812
 172    -0.067712954650942
 173    -0.0049597055032903
 174    -0.040951905381724
 175     -0.11366445706853
 176    -0.0084359884461371
 177    -0.057693537249086
 178     -0.16773524747044
 179    -0.0058093326101834
 180    0.0033004598071263
 181    -0.0013007069473112
 182    -0.0055294136069285
 183    0.0055528022499631
 184    -0.0056395414060833
 Sym= A
 Ene=               2
 Spin= Alpha
 Occup=    1.00000
   1    0.0030009644631265
   2    -0.0088820427583916
   3     0.040695581452035
   4    -0.015445271950233
   5    -0.00094889441516463
   6     0.012963850205481
   7     0.010534874890701
   8    -0.010719478934589
   9    -0.042841171254448
  10    -0.033610725255411
  11     0.032327155862008
  12     0.020951717705263
  13    -0.068691521523238
  14    -0.040077031194208
  15     0.033570232758419
  16     -0.04215590753218
  17     0.071339513924496
  18     0.049849382597541
  19    -0.058880613351592
  20     0.021559281440892
  21    -0.027979320285383
  22     0.046350652292294
  23     0.032850004550441
  24    -0.039349565718622
  25    2.8489360735582e-05
  26    0.0010444393544845
  27    0.00031905780208882
  28    -0.00072165177732991
  29    0.0022097732722057
  30    0.00098426337202747
  31    0.00016578048108169
  32    3.1321522532075e-16
  33    6.3400109786901e-16
  34    5.6785263308988e-16
  35    -0.0051137484323646
  36      0.01191487347815
  37    1.3881286903592e-16
  38    -0.0032678555579492
  39     0.021428577543221
  40    2.413667670772e-16
  41    -4.2043381985773e-18
  42    -0.00069548937384819
  43    0.00078031662449032
  44    1.5380001266456e-17
  45    -8.4384828988205e-18
  46    -0.0030009644631269
  47    0.0088820427583922
  48    -0.040695581452038
  49     0.015445271950232
  50    0.00094889441516494
  51     0.012963850205482
  52     0.010534874890701
  53     0.010719478934589
  54    -0.042841171254452
  55    -0.033610725255412
  56    -0.032327155862008
  57     0.020951717705263
  58    -0.068691521523237
  59     0.040077031194206
  60    -0.033570232758419
  61     -0.04215590753218
  62     0.071339513924494
  63    -0.049849382597539
  64     0.058880613351591
  65    -0.021559281440893
  66    -0.027979320285382
  67     0.046350652292292
  68     -0.03285000455044
  69     0.039349565718622
  70    -2.8489360735585e-05
  71    0.0010444393544845
  72    0.00031905780208879
  73    0.0007216517773299
  74    -0.0022097732722057
  75    0.00098426337202747
  76    0.0001657804810817
  77    -0.0012614226645499
  78    0.0078117295665122
  79    -0.011132142572246
  80    -0.0011466720657576
  81    -0.0092568137070333
  82     0.012546844969144
  83     0.038405656276084
  84    -0.015938433302977
  85     0.020914204142913
  86     0.064834869258736
  87    -0.025447952824543
  88     0.039341599441815
  89     0.095609269151034
  90    -0.0034239374934843
  91    -0.00036169858302668
  92    0.0017693671796018
  93    -3.2945746214814e-05
  94    -0.00064732361675238
  95    0.0093542192925468
  96    -0.059144575941562
  97     0.081729602128527
  98     0.024318108971357
  99    -0.072520038322929
 100     0.054742735725321
 101     0.080286275567154
 102     -0.12281030300739
 103     0.092195645491314
 104      0.13513467367331
 105     -0.17281896250821
 106      0.13561709500769
 107       0.1920166396647
 108    0.0058669952925617
 109     -0.01185400316566
 110    0.0084646641499206
 111    0.0039433092076868
 112    -0.0061965459952512
 113    -0.0093959698652165
 114     0.059526626799606
 115     -0.08105855497447
 116    -0.031382097135014
 117      0.05010296056313
 118      0.10357406480321
 119    -0.0070781581486996
 120     0.085657959718422
 121      0.17445418998696
 122    -0.011417090374567
 123      0.12068551773322
 124      0.25588973282753
 125    -0.011363350420413
 126    0.0052665454606834
 127    0.0024641249754532
 128    0.0086459828358131
 129    0.0089196440486047
 130    -0.0085310480406045
 131    0.0012614226645496
 132    -0.0078117295665111
 133     0.011132142572245
 134     0.001146672065757
 135    -0.009256813707034
 136     0.012546844969144
 137    -0.038405656276082
 138    -0.015938433302979
 139     0.020914204142914
 140    -0.064834869258732
 141    -0.025447952824545
 142     0.039341599441816
 143    -0.095609269151029
 144    0.0034239374934841
 145    -0.0003616985830266
 146    0.0017693671796016
 147    3.2945746214865e-05
 148    0.00064732361675242
 149    -0.0093542192925466
 150     0.059144575941561
 151    -0.081729602128525
 152    -0.024318108971357
 153    -0.072520038322928
 154      0.05474273572532
 155    -0.080286275567153
 156     -0.12281030300739
 157     0.092195645491312
 158     -0.13513467367331
 159      -0.1728189625082
 160      0.13561709500769
 161     -0.19201663966469
 162    -0.0058669952925616
 163     -0.01185400316566
 164    0.0084646641499204
 165    -0.0039433092076868
 166    0.0061965459952511
 167    0.0093959698652164
 168    -0.059526626799605
 169     0.081058554974469
 170     0.031382097135014
 171      0.05010296056313
 172      0.10357406480321
 173    0.0070781581486995
 174     0.085657959718421
 175      0.17445418998696
 176     0.011417090374567
 177      0.12068551773322
 178      0.25588973282752
 179     0.011363350420413
 180    -0.0052665454606833
 181    0.0024641249754532
 182     0.008645982835813
 183    -0.0089196440486045
 184    0.0085310480406044
 Sym= A
 Ene=               3
 Spin= Alpha
 Occup=    1.00000
   1     0.011645989820917
   2    -0.034954481298243
   3      0.15620934082982
   4     0.062133698587449
   5    -0.014944756664029
   6     0.075977030735439
   7    -0.022071615997926
   8    -0.027068355322028
   9     -0.24667821233728
  10     0.068487805554833
  11     0.080907062018705
  12    0.0076980400295135
  13     -0.06208153038505
  14     0.022051442125696
  15     0.069947374266109
  16     -0.03524002704674
  17     0.016958739664025
  18    0.0091156453950848
  19    -0.039919543485583
  20     0.046445566122097
  21    -0.023189463093455
  22    0.0089730342355436
  23     0.009366372749441
  24    -0.026855667287191
  25    0.00044769393402529
  26    0.00041080542234467
  27    -0.00099012250490036
  28    -0.000640390747008
  29    0.0012171781179991
  30    0.0017754578390858
  31    -4.0633662642089e-05
  32    -0.063542447533944
  33     -0.12459250044498
  34     -0.11522171610284
  35    -8.3435764913701e-18
  36    -2.1183554487545e-17
  37    -0.026735715272963
  38    -8.0149610349806e-18
  39    -3.1252358706674e-17
  40    -0.033278360283577
  41    0.0013539748064632
  42    -5.8899573503152e-19
  43    9.7551381150698e-20
  44    -0.0024097635310701
  45    -0.00095878521037825
  46     0.011645989820917
  47    -0.034954481298243
  48      0.15620934082982
  49     0.062133698587449
  50    -0.014944756664029
  51    -0.075977030735439
  52     0.022071615997926
  53    -0.027068355322028
  54      0.24667821233728
  55    -0.068487805554833
  56     0.080907062018705
  57    -0.0076980400295135
  58     0.062081530385051
  59     0.022051442125696
  60     0.069947374266109
  61      0.03524002704674
  62    -0.016958739664025
  63    0.0091156453950849
  64    -0.039919543485583
  65     0.046445566122097
  66     0.023189463093455
  67    -0.0089730342355436
  68    0.0093663727494411
  69    -0.026855667287191
  70    0.00044769393402529
  71    -0.00041080542234467
  72    0.00099012250490036
  73    -0.000640390747008
  74    0.0012171781179991
  75    -0.0017754578390858
  76    4.0633662642087e-05
  77     0.006531848015402
  78    -0.041032534967404
  79      0.05188238109482
  80     0.020420272274986
  81    -0.054115792287233
  82     0.073730820294008
  83    -0.039724670315955
  84     -0.09145857763925
  85      0.12383558238678
  86    -0.067500281268706
  87      -0.1405918788204
  88      0.18557736476604
  89    -0.085821197316835
  90    0.0042413318033135
  91    0.0035975648278252
  92    -0.010688351735125
  93    -0.0044532803274212
  94    -0.0030723319086459
  95    0.0048219860797838
  96     -0.03015847369582
  97     0.040081662201791
  98     0.012135659794474
  99    -0.047451489392768
 100     0.059911915641155
 101     0.045588148623614
 102    -0.078971615078106
 103      0.10028241883257
 104     0.076608529976152
 105     -0.11542965219405
 106      0.15448362762363
 107      0.10651769154874
 108    0.0031954139183918
 109    -0.0085663420145507
 110    0.0067327365141076
 111    0.0026385731605095
 112    -0.0058558004160093
 113    -0.0058018307750801
 114     0.036750147154803
 115    -0.051110437283395
 116    -0.015668770042853
 117    0.0019197247830002
 118      0.07805401936582
 119     -0.01770177264033
 120    0.0035215548445191
 121      0.13145435215385
 122    -0.028799210610182
 123    -0.001519507029982
 124      0.19312183439732
 125    -0.044517678695696
 126    0.0027829660793435
 127    0.00079860824453271
 128    0.0072651599215387
 129    0.0057518799190021
 130    -0.0036816878134627
 131     0.006531848015402
 132    -0.041032534967404
 133     0.051882381094821
 134     0.020420272274986
 135     0.054115792287233
 136    -0.073730820294009
 137    -0.039724670315955
 138     0.091458577639251
 139     -0.12383558238678
 140    -0.067500281268706
 141       0.1405918788204
 142     -0.18557736476604
 143    -0.085821197316835
 144    0.0042413318033136
 145    -0.0035975648278252
 146     0.010688351735125
 147    -0.0044532803274212
 148    -0.0030723319086459
 149    0.0048219860797839
 150     -0.03015847369582
 151     0.040081662201791
 152     0.012135659794474
 153     0.047451489392768
 154    -0.059911915641155
 155     0.045588148623614
 156     0.078971615078106
 157     -0.10028241883257
 158     0.076608529976152
 159      0.11542965219405
 160     -0.15448362762363
 161      0.10651769154873
 162    0.0031954139183918
 163    0.0085663420145507
 164    -0.0067327365141076
 165    0.0026385731605095
 166    -0.0058558004160093
 167    -0.0058018307750801
 168     0.036750147154803
 169    -0.051110437283396
 170    -0.015668770042854
 171    -0.0019197247830003
 172     -0.07805401936582
 173     -0.01770177264033
 174    -0.0035215548445193
 175     -0.13145435215385
 176    -0.028799210610182
 177    0.0015195070299817
 178     -0.19312183439732
 179    -0.044517678695697
 180    0.0027829660793435
 181    -0.00079860824453272
 182    -0.0072651599215388
 183    0.0057518799190021
 184    -0.0036816878134627
 Sym= A
 Ene=               4
 Spin= Alpha
 Occup=    1.00000
   1    -0.0022796343132703
   2     0.006923777376566
   3    -0.029945385564502
   4     0.025422144066037
   5    -0.014410171864745