[Molden Format]
made by pyscf v[2.1.1]
[Atoms] (AU)
Fe   1   26     3.17068844873907     0.00098706064664     0.12237737881307
O   2   8     0.00000000000000     0.00000000000000    -0.89004350580623
Fe   3   26    -3.17068844873907    -0.00098706064664     0.12237737881307
Cl   4   17     3.53383895113107    -2.07485195383062     3.76228752659000
Cl   5   17     5.54152580550813    -1.85590924879884    -2.78672786652360
Cl   6   17     4.48169216485503     3.92976278472880    -0.95330240907949
Cl   7   17    -3.53383895113107     2.07485195383062     3.76228752659000
Cl   8   17    -5.54152580550813     1.85590924879884    -2.78672786652360
Cl   9   17    -4.48169216485503    -3.92976278472880    -0.95330240907949
[GTO]
1 0
 s    6 1.00
          60923.640643  0.0017552243692958
          9147.8893982   0.013449023284001
          2081.3505927   0.066678874640978
          587.55977067    0.23176348548844
           191.0904399    0.46945550248188
          65.732730112     0.3596824938678
 s    3 1.00
          127.25891928   -0.10723431835929
           14.83091301    0.62971616328466
          6.0653307408    0.44472317896179
 s    3 1.00
           10.44994371   -0.21694289195548
          1.7245228003    0.69457867408393
         0.71772177325    0.43298308896347
 s    1 1.00
        0.091449828308                   1
 s    1 1.00
        0.033706691021                   1
 p    5 1.00
          773.43750995  0.0091440529992506
          182.15149714   0.067887577136571
          57.547272758    0.26167978878504
          20.614988935    0.51088040113251
           7.634855789    0.33235475570224
 p    3 1.00
           3.871932799    0.33193859098144
          1.4924724132     0.5553666555499
         0.56061284958    0.23106034201617
 p    1 1.00
              0.134915                   1
 d    4 1.00
          38.968133419   0.033335938558743
          10.800067078    0.17766212505983
          3.6136457999      0.441281781625
          1.2129967888    0.57089200490673
 d    1 1.00
          0.3652439317                   1
 f    1 1.00
                 1.598                   1

2 0
 s    5 1.00
          2266.1767785  -0.0053893503921743
          340.87010191   -0.04023472138896
          77.363135167   -0.18008184205526
           21.47964494   -0.46828857657651
          6.6589433124   -0.44692617160187
 s    1 1.00
         0.80975975668                   1
 s    1 1.00
         0.25530772234                   1
 p    3 1.00
          17.721504317   0.062630248763161
           3.863550544    0.33331138482352
          1.0480920883    0.74148638308122
 p    1 1.00
         0.27641544411                   1
 d    1 1.00
                   1.2                   1

3 0
 s    6 1.00
          60923.640643  0.0017552243692958
          9147.8893982   0.013449023284001
          2081.3505927   0.066678874640978
          587.55977067    0.23176348548844
           191.0904399    0.46945550248188
          65.732730112     0.3596824938678
 s    3 1.00
          127.25891928   -0.10723431835929
           14.83091301    0.62971616328466
          6.0653307408    0.44472317896179
 s    3 1.00
           10.44994371   -0.21694289195548
          1.7245228003    0.69457867408393
         0.71772177325    0.43298308896347
 s    1 1.00
        0.091449828308                   1
 s    1 1.00
        0.033706691021                   1
 p    5 1.00
          773.43750995  0.0091440529992506
          182.15149714   0.067887577136571
          57.547272758    0.26167978878504
          20.614988935    0.51088040113251
           7.634855789    0.33235475570224
 p    3 1.00
           3.871932799    0.33193859098144
          1.4924724132     0.5553666555499
         0.56061284958    0.23106034201617
 p    1 1.00
              0.134915                   1
 d    4 1.00
          38.968133419   0.033335938558743
          10.800067078    0.17766212505983
          3.6136457999      0.441281781625
          1.2129967888    0.57089200490673
 d    1 1.00
          0.3652439317                   1
 f    1 1.00
                 1.598                   1

4 0
 s    5 1.00
          10449.827566  0.0054265953789407
          1571.7365221   0.040626378128836
          357.12065523    0.18359747852877
          100.25185935    0.47438948768198
          30.812727554    0.43735181104122
 s    3 1.00
          51.923789434  -0.092754154848099
          5.7045760975    0.56380825544207
          2.3508376809    0.50367044629712
 s    1 1.00
         0.44605124672                   1
 s    1 1.00
          0.1684885619                   1
 p    5 1.00
          307.66790569  -0.0088797025588865
          72.102015515  -0.064284071721237
          22.532680262   -0.24288739736006
          7.8991765444   -0.48340836369878
          2.8767268321   -0.38952563875509
 p    1 1.00
         0.77459363955                   1
 p    1 1.00
         0.21037699698                   1
 d    1 1.00
                  0.65                   1

5 0
 s    5 1.00
          10449.827566  0.0054265953789407
          1571.7365221   0.040626378128836
          357.12065523    0.18359747852877
          100.25185935    0.47438948768198
          30.812727554    0.43735181104122
 s    3 1.00
          51.923789434  -0.092754154848099
          5.7045760975    0.56380825544207
          2.3508376809    0.50367044629712
 s    1 1.00
         0.44605124672                   1
 s    1 1.00
          0.1684885619                   1
 p    5 1.00
          307.66790569  -0.0088797025588865
          72.102015515  -0.064284071721237
          22.532680262   -0.24288739736006
          7.8991765444   -0.48340836369878
          2.8767268321   -0.38952563875509
 p    1 1.00
         0.77459363955                   1
 p    1 1.00
         0.21037699698                   1
 d    1 1.00
                  0.65                   1

6 0
 s    5 1.00
          10449.827566  0.0054265953789407
          1571.7365221   0.040626378128836
          357.12065523    0.18359747852877
          100.25185935    0.47438948768198
          30.812727554    0.43735181104122
 s    3 1.00
          51.923789434  -0.092754154848099
          5.7045760975    0.56380825544207
          2.3508376809    0.50367044629712
 s    1 1.00
         0.44605124672                   1
 s    1 1.00
          0.1684885619                   1
 p    5 1.00
          307.66790569  -0.0088797025588865
          72.102015515  -0.064284071721237
          22.532680262   -0.24288739736006
          7.8991765444   -0.48340836369878
          2.8767268321   -0.38952563875509
 p    1 1.00
         0.77459363955                   1
 p    1 1.00
         0.21037699698                   1
 d    1 1.00
                  0.65                   1

7 0
 s    5 1.00
          10449.827566  0.0054265953789407
          1571.7365221   0.040626378128836
          357.12065523    0.18359747852877
          100.25185935    0.47438948768198
          30.812727554    0.43735181104122
 s    3 1.00
          51.923789434  -0.092754154848099
          5.7045760975    0.56380825544207
          2.3508376809    0.50367044629712
 s    1 1.00
         0.44605124672                   1
 s    1 1.00
          0.1684885619                   1
 p    5 1.00
          307.66790569  -0.0088797025588865
          72.102015515  -0.064284071721237
          22.532680262   -0.24288739736006
          7.8991765444   -0.48340836369878
          2.8767268321   -0.38952563875509
 p    1 1.00
         0.77459363955                   1
 p    1 1.00
         0.21037699698                   1
 d    1 1.00
                  0.65                   1

8 0
 s    5 1.00
          10449.827566  0.0054265953789407
          1571.7365221   0.040626378128836
          357.12065523    0.18359747852877
          100.25185935    0.47438948768198
          30.812727554    0.43735181104122
 s    3 1.00
          51.923789434  -0.092754154848099
          5.7045760975    0.56380825544207
          2.3508376809    0.50367044629712
 s    1 1.00
         0.44605124672                   1
 s    1 1.00
          0.1684885619                   1
 p    5 1.00
          307.66790569  -0.0088797025588865
          72.102015515  -0.064284071721237
          22.532680262   -0.24288739736006
          7.8991765444   -0.48340836369878
          2.8767268321   -0.38952563875509
 p    1 1.00
         0.77459363955                   1
 p    1 1.00
         0.21037699698                   1
 d    1 1.00
                  0.65                   1

9 0
 s    5 1.00
          10449.827566  0.0054265953789407
          1571.7365221   0.040626378128836
          357.12065523    0.18359747852877
          100.25185935    0.47438948768198
          30.812727554    0.43735181104122
 s    3 1.00
          51.923789434  -0.092754154848099
          5.7045760975    0.56380825544207
          2.3508376809    0.50367044629712
 s    1 1.00
         0.44605124672                   1
 s    1 1.00
          0.1684885619                   1
 p    5 1.00
          307.66790569  -0.0088797025588865
          72.102015515  -0.064284071721237
          22.532680262   -0.24288739736006
          7.8991765444   -0.48340836369878
          2.8767268321   -0.38952563875509
 p    1 1.00
         0.77459363955                   1
 p    1 1.00
         0.21037699698                   1
 d    1 1.00
                  0.65                   1

[5d]
[7f]
[9g]

[MO]
 Sym= A
 Ene=               0
 Spin= Alpha
 Occup=    1.00000
   1    -0.00048764250847568
   2    0.0014557687964142
   3    -0.0064953994008225
   4    0.0067076676099089
   5    -0.00096770463249821
   6    -0.0022577138988517
   7    0.00087831277406711
   8    0.0007393628718279
   9    0.0072110855093942
  10    -0.0027955476560943
  11    -0.0023609318210867
  12    -0.0063711035163419
  13    0.0053191840731982
  14    0.0076746301107246
  15    -0.0010899730226782
  16    -0.00090395567867565
  17    -6.7567211251183e-06
  18    0.0016156354892129
  19    -0.00094432028712017
  20    -0.001244884702881
  21    -0.0021098166176118
  22    -0.00034355829463013
  23    0.00072596246790058
  24    -0.0016511262442508
  25    -3.9748864203977e-05
  26    0.00035022763350228
  27    -2.9646302477614e-06
  28    6.3870839985611e-05
  29    0.00011750587525497
  30    -0.00025779398571626
  31    0.00022644429333765
  32    -0.0018747874489813
  33    -0.0049137184456739
  34    -0.0030143821472228
  35    0.0090312118942016
  36     0.026466132401812
  37     0.044109742822293
  38     0.009921453311748
  39      0.02564148193636
  40     0.042799026877856
  41    0.00010511266620492
  42    0.0010602859869534
  43    -9.1086110301027e-06
  44    8.8181632370616e-05
  45    0.00046742217049968
  46    -0.0010904212147143
  47    0.0032411830850011
  48    -0.014516052390543
  49     0.027648274137403
  50    -0.012833356226558
  51    0.00035352439814309
  52     0.002409580842552
  53    0.0041815311642265
  54    -0.0011399093845969
  55    -0.0075286759111565
  56    -0.013007140722248
  57    0.0015977385955977
  58    0.0099295973133232
  59     0.018968871693688
  60     -0.27069259110109
  61     -0.46418125277286
  62      -0.3999033834454
  63     -0.44289519953387
  64     -0.35345868495555
  65    -0.072803175083284
  66     -0.12443142622242
  67     -0.10846845720555
  68     -0.12004780578919
  69    -0.094680835851179
  70    -0.0011627976561244
  71    -0.00089164091812486
  72    -0.00087547838062012
  73    0.00021463225833876
  74    2.3621084543812e-05
  75    0.00087076806729894
  76    0.00081553581220029
  77    -0.00018445293484582
  78    0.0012498867078734
  79    -0.0024335353761789
  80    -0.000858388982327
  81    0.0011854390765739
  82    -0.00086800762594903
  83    0.00051496173706027
  84    0.0022170228078224
  85     -0.00148761392808
  86    0.0009144111350519
  87    0.0028057156461688
  88    -0.0032226997601937
  89    0.0019897397575985
  90    -9.7564494604126e-05
  91    0.00024240033838068
  92    -6.2186383380519e-05
  93    0.0001326213953875
  94    -0.00024190421337749
  95    8.781717823785e-05
  96    -0.0005794263164299
  97    0.00050770470969235
  98    0.0033068029303028
  99    -0.0011642933758236
 100    -0.00016310979509167
 101    -0.00060514377161574
 102    -0.0020302947715311
 103    -0.0003158014222345
 104    -0.0011145514504781
 105    -0.0039121508853579
 106    0.00044154653327678
 107    -0.00010395172898493
 108    6.6557150816535e-05
 109    -0.00013194145148908
 110    5.4776171194788e-05
 111    -0.00010559307775925
 112    -4.270764953043e-05
 113    -0.00015002667623346
 114    0.0010090251392068
 115    -0.0019088364730268
 116    -0.00048524045992476
 117    0.0012594106194751
 118    0.00057629468770107
 119    -0.00068228885380372
 120    0.0022747705500319
 121    0.0010318903394286
 122    -0.001102485829113
 123    0.0033187365458244
 124    0.0017552687537747
 125    -0.0025606196986534
 126    -0.00013480460743355
 127    -0.0001039794231855
 128    1.825984742571e-05
 129    0.0001913394729314
 130    0.00022999222192617
 131    0.0012771862188166
 132    -0.0083753599038822
 133     0.010667340547761
 134    0.0058476685747475
 135     0.018745504053595
 136    -0.010912504559153
 137    -0.0072357631461701
 138     0.031773777065938
 139     -0.01870382207447
 140    -0.012720904992711
 141     0.052450121595224
 142    -0.030414604993385
 143    -0.019760070504844
 144    0.00085593683375391
 145    0.0020625381887063
 146    -0.00064682055155112
 147    -0.00063959431771363
 148    0.0012754152638598
 149    4.9108131822164e-05
 150    -0.00030905961613959
 151    -0.00085194832392438
 152    0.0043948021069431
 153    -0.0087741604790749
 154    -0.027039080289208
 155    -0.0094400508438046
 156    -0.014775616610189
 157    -0.045571449923965
 158    -0.015743258424963
 159    -0.023628759129861
 160    -0.077748767694499
 161    -0.026424396317861
 162    0.0010669498496454
 163    0.0013341909877933
 164    0.0016178750977503
 165    0.0018842543336929
 166     0.001419601294868
 167    -0.00031917190113515
 168    0.0021075369692822
 169    -0.0041291560183158
 170    0.0025243007899007
 171    -0.015299079834675
 172     0.006703602573607
 173    -0.020149963721338
 174     -0.02566926136747
 175     0.011252658271581
 176    -0.033820990295057
 177    -0.042809486162431
 178     0.020198510895564
 179    -0.056951139012892
 180    0.00082572012603738
 181    0.0012785486791276
 182    0.0013567145462471
 183    0.0017378513151132
 184    0.00096774197032334
 Sym= A
 Ene=               1
 Spin= Alpha
 Occup=    1.00000
   1    -0.00063333009834376
   2    0.0018766212430084
   3    -0.0084964725937644
   4     0.009995885409416
   5    -0.0021455128578235
   6    -0.0027006142430767
   7    -0.0020884366962317
   8    0.00061359414746989
   9    0.0086274999416456
  10    0.0066500294780604
  11    -0.0019661392669236
  12    -0.0070216575539065
  13    -0.013436932778404
  14     0.008403590944215
  15    -0.0015834687620625
  16    -0.00042787002061404
  17    0.00051522769708099
  18    0.0016194860187881
  19    0.0020350272362496
  20    -0.0014801657812981
  21    -0.0024190920434408
  22    0.0011800987230971
  23    0.00063317906491277
  24    0.0047352483722487
  25    -2.1188966560013e-05
  26    0.00040208911410322
  27    0.00014668898427299
  28    0.00011402086078703
  29    -0.00033173470450228
  30    -0.00032749329984542
  31    -0.00062813594256194
  32    -0.0028580724366917
  33    -0.0073384652453097
  34    -0.0041647476174524
  35     0.012278931557795
  36    -0.071969833771359
  37      0.05086097677633
  38     0.013652761817114
  39    -0.069270816919997
  40     0.049547840108791
  41    0.00065236228606283
  42    0.0014603188926059
  43    -0.0011355681567051
  44    0.00055636234373882
  45    -0.0016181709709508
  46    -0.00097527308488588
  47    0.0028996039631097
  48    -0.012974935947466
  49      0.02512107183007
  50    -0.0097147282949308
  51    -0.00016986629291635
  52    -0.0062564077945714
  53    0.0038806953172863
  54    0.00054525790121955
  55      0.01922591627923
  56    -0.011878249041608
  57    -0.0014297691566423
  58    -0.027044840109566
  59     0.018484531826355
  60      0.49658649274612
  61     -0.23836559899358
  62     -0.52067991252264
  63     0.070678954439343
  64      0.43432273244996
  65      0.13331834098281
  66    -0.063052526941436
  67     -0.14004176931376
  68     0.018471089533538
  69      0.11510095270319
  70    0.00040885001399618
  71    -0.0015337771835066
  72    -0.00067900827586406
  73    0.00076818070472859
  74    0.0017163878797724
  75    3.6014133946947e-05
  76    -0.0013914687508272
  77    -0.00032878348463804
  78    0.0021797564101332
  79    -0.0030199625722856
  80    -0.0056611537882244
  81    0.0026441358895583
  82    -0.00012424935927875
  83    0.0020731629447778
  84    0.0046696632673636
  85    -0.00015805861922653
  86    0.0035154466913203
  87    0.0070971272588537
  88    -0.0018016046837817
  89    0.0085952259188632
  90    -5.033029391587e-05
  91    0.00059822194431582
  92    5.0755243986312e-05
  93    0.00032114215550569
  94    -0.00013720572439268
  95    -8.9289324637155e-05
  96    0.00060048731413135
  97    -0.0012582114871859
  98    0.00047088146107951
  99    0.00073460072766044
 100    0.00042050875241959
 101    -0.0009188076785054
 102    0.0013263044407761
 103    0.00057372224705474
 104    -0.0015056149675054
 105    0.0018977392675207
 106    0.0024247655483235
 107    -0.0029075582343167
 108    -0.00017243611587655
 109    -0.00015737855931575
 110    3.2773036752825e-05
 111    0.00011399100809915
 112    1.0150159511301e-05
 113    0.00024101761214689
 114    -0.001602723297518
 115    0.0022618274771324
 116    0.0044110213809487
 117    -0.0027861031221713
 118    -0.00069349275016784
 119    -0.00096393766001059
 120    -0.0050092933204546
 121    -0.0011366284902399
 122    -0.0017191796749082
 123    -0.0071092091592384
 124    -0.0042870009805742
 125    -0.0018573964954547
 126    9.7696742165104e-05
 127    -0.00023970307769927
 128    -0.0001882876249743
 129    -0.00050496658413515
 130    -0.00015938363709412
 131    0.00020746634534142
 132    -0.001354507288163
 133    0.0011685793497578
 134    0.0014321766099978
 135    -3.5898174296756e-05
 136     0.021916961174857
 137    -0.014599686965003
 138    -1.8242710375449e-05
 139     0.036925409917934
 140    -0.024797106888452
 141    -0.00022255143312317
 142     0.062893657815331
 143    -0.041574792822029
 144    -0.0025043744953368
 145    -8.1634738221754e-05
 146    0.0012414719254346
 147    -0.0015331754211629
 148    9.9892451200388e-05
 149    -0.00036410665110366
 150    0.0024417977662984
 151    -0.0050088074926791
 152    0.0047284719986948
 153    -0.017306088218005
 154    0.0058014334309304
 155      0.01308672644931
 156    -0.029349881305348
 157    0.0097091574554669
 158     0.022015147173426
 159    -0.046594275822726
 160      0.01655264039732
 161     0.038259309018864
 162    -0.002255225517721
 163    0.00022232344891101
 164    0.0002127579873919
 165    0.0011458407120356
 166    -0.0010801624342225
 167    0.0010918757179598
 168    -0.0071473750971605
 169    0.0091623006904845
 170    0.0040773914283832
 171     0.013790685806136
 172     0.010470445521615
 173    -0.010540597955698
 174     0.023294636432028
 175     0.017918018423798
 176    -0.017662185937024
 177      0.03844182958782
 178     0.029223124130545
 179    -0.030476890739327
 180    0.0010678517253692
 181    -3.7414250873276e-05
 182    0.0013577954396709
 183    -0.0005615918888562
 184    -0.0010212657506701
 Sym= A
 Ene=               2
 Spin= Alpha
 Occup=    1.00000
   1    -0.00094985478504153
   2      0.00281216053308
   3    -0.012759829174622
   4     0.013816292419381
   5    -0.0047358588290271
   6    -0.004178145746658
   7    0.0025985239758756
   8    0.0010456350212209
   9     0.013399481631572
  10    -0.0082717464948855
  11    -0.003353480396497
  12    -0.012718283908336
  13     0.015881327914202
  14     0.013393138433603
  15    -0.0017782651216398
  16    3.397391231278e-05
  17    -0.00033580102231419
  18     0.003240569757389
  19    -0.0022818309088863
  20    -0.0021086156114231
  21    -0.0032744986353547
  22    -0.001580969690279
  23    0.0019672022516497
  24    -0.0053300273632267
  25    -2.1249237504043e-05
  26    0.00058861735020871
  27    -6.7995178252942e-05
  28    1.7296959625791e-05
  29    0.00038069460589435
  30    -0.00047480534025178
  31    0.00071619635198441
  32    -0.0045999386554635
  33     -0.01133719889861
  34    -0.0085744927839917
  35     0.022978390981867
  36     0.082235533993992
  37     0.070868999500402
  38     0.025764404886384
  39     0.080348752188097
  40     0.068981518822167
  41    0.00072546682804615
  42      0.00202926044053
  43    0.0011690888889111
  44     0.001074012957644
  45    0.0018742111536102
  46    0.00062521206811946
  47    -0.0018618760709456
  48    0.0083171064507803
  49    -0.010865261853103
  50    -0.0014044828662367
  51    -0.0020765640940566
  52    -0.0045010060921444
  53    -0.004331305352654
  54    0.0064352271625955
  55     0.014227134253544
  56     0.013762503176391
  57    -0.0056231853009722
  58    -0.0072285385367291
  59    -0.0063245232161684
  60      0.55456189185128
  61     -0.35173257854164
  62      0.31408524025434
  63      0.11805763521758
  64     -0.46978583342432
  65      0.14522017899489
  66    -0.090450200368297
  67      0.08217120995558
  68     0.032360114150612
  69     -0.12090913167359
  70    0.00022368154674558
  71    -0.0017869629586059
  72    -4.4264207775662e-05
  73    0.0015494739994516
  74    -0.0013904529552684
  75    0.00022560972632962
  76    0.0019114588262545
  77    -0.00015632636254737
  78    0.0010464387617691
  79    -0.0016065613091668
  80    -0.0021473397523728
  81    0.00034620604521364
  82    -0.0015276883129396
  83    0.00041679250130445
  84    0.00058553309321008
  85    -0.0024177893091499
  86    0.00077079404432293
  87    0.0018264175228262
  88    -0.0063955783865118
  89     0.001673887610863
  90    -4.340194269816e-05
  91    0.00028400326361029
  92    -0.00012788402351201
  93    4.2363629161593e-05
  94    -0.00030282584482767
  95    0.00018639579158488
  96    -0.0012243208205094
  97    0.0009833632253532
  98    0.0071960770623954
  99    -0.0025773048217796
 100    -0.00053915895553622
 101    -0.00086032012491292
 102    -0.0045082386560908
 103    -0.00098128088227601
 104    -0.0016859500612892
 105    -0.0083893431272514
 106    0.00010636243673294
 107    0.0011717922745947
 108    0.00016411894204712
 109    -0.00027683512086992
 110    0.00013016961650016
 111    -0.00019836160069363
 112    -0.00015455196934806
 113    -0.00040093606583574
 114    0.0026861548627585
 115    -0.0046712021125611
 116    -0.0030015156048298
 117    0.0033546362857034
 118    0.0015228515193049
 119    -0.00095768239359068
 120    0.0059439165614423
 121    0.0027117994909632
 122    -0.0014374672845129
 123    0.0095650955141413
 124    0.0053484963019262
 125    -0.0045326706977447
 126    -0.00038035015817409
 127    -0.00010009710075785
 128    0.0001126232808422
 129    0.00051936344995736
 130    0.00063039105412235
 131    -0.0037058174409966
 132     0.024287031351264
 133    -0.030298066515975
 134     -0.03059541031809
 135    0.0099453705828855
 136     0.027668759011893
 137     0.030225339986581
 138     0.016572172518377
 139     0.047095020462053
 140     0.051855626487689
 141     0.028237676758163
 142     0.082637038707252
 143     0.092641988427694
 144    -0.0011782769726768
 145    0.0017361827136469
 146    -5.5227624382841e-05
 147    4.2203890909411e-05
 148    0.00036230306034748
 149    0.00042344038581616
 150    -0.0027441964121732
 151    0.0029251865077582
 152    0.0052322987327969
 153    0.0006529275140211
 154    0.0058532108440503
 155     0.010728217231019
 156    0.0011392903440065
 157     0.010100589940827
 158     0.018279591939977
 159    0.0025565379530402
 160     0.015270708605214
 161      0.03048753087321
 162    -0.00081772370198704
 163    -0.00048070662611658
 164    -0.00035896979934166
 165    -0.00044269660178769
 166    -0.0015543154224757
 167     0.002900808463114
 168    -0.018888141845994
 169     0.022758040658763
 170     0.025984500504693
 171    -0.00061287424334244
 172     0.029118610464259
 173     0.022402914800582
 174    -0.00076857406994635
 175      0.04912790544487
 176     0.037466661697396
 177    -0.00037584486855805
 178     0.088145967966657
 179     0.065577689355772
 180    -0.0007350582884936
 181    -0.0002676635698727
 182    -0.00018508463212784
 183     -0.00113522280357
 184    0.0019241883279812
 Sym= A
 Ene=               3
 Spin= Alpha
 Occup=    1.00000
   1    -0.0011754947644101
   2    0.0034483951863148
   3    -0.015936073356623
   4     0.016597993688744
   5    0.0018231841401185
   6    -0.004610358082109
   7    -0.0017674613345571
   8    0.00014437293521995
   9     0.014872742720994
  10    0.0056499559166839
  11    -0.00049487415295033
  12    -0.014452664253753
  13    -0.012219463696079
  14     0.010498358400592
  15    -0.0022890782281372
  16    0.0015002707090521
  17    0.00038141718164417
  18    0.0039785912472182
  19    0.0017528242396983
  20    -0.001750482114282
  21    -0.0018770481830914
  22    0.00049319243699651
  23    0.0016250478165898
  24    0.0034797099805292
  25    0.00010525238747441
  26    0.00042810035595846
  27    0.00012824922996204
  28    -9.1004457287633e-05
  29    -0.00026134667829857
  30    -0.00047145294871942
  31    -0.00046395259293272
  32    -0.0079942725504644
  33    -0.017696832710504
  34    -0.019370732491445
  35      0.03911513164654
  36    -0.056772336198823
  37     0.053882618605024
  38     0.044810609260471
  39    -0.056530022777578
  40     0.051793583730744
  41    -5.0285504175216e-05
  42    0.0016593863803195
  43    -0.00039917140824116
  44    0.00098245402536236
  45    -0.001103172963053
  46    0.00069360021975168
  47    -0.0020998570847072
  48    0.0090661632705077
  49    -0.0096315248867626
  50    -0.0068272114265604
  51    -0.0085988858916751
  52    0.0079423307518225
  53    -0.0069220113622265
  54     0.026747010271869
  55    -0.024837743802816
  56     0.021794891565654
  57     -0.02538281146335
  58     0.026604711591268
  59    -0.024356634104732
  60     -0.14818941132459
  61     -0.51397095662787
  62      0.46318370239028
  63     -0.16940298134307
  64      0.47495674328754
  65    -0.041740060009698
  66     -0.13312468558712
  67      0.12215103407479
  68    -0.041266866396106
  69      0.12126467944323
  70    -0.0012620203965579
  71    -0.0014768464090958
  72    0.0010936761338845
  73    0.0010261523088946
  74    0.0011391843819058
  75    -5.4749714865617e-05
  76    -0.0012873203565238
  77    -0.00028692753292802
  78    0.0018905025114663
  79    -0.001772135782881
  80    -0.0087173195026713
  81    0.00058086833403604
  82    -0.00038744266018957
  83    0.0015865347011405
  84    0.0011591798695624
  85    -0.00056528565599742
  86    0.0024964071847686
  87    0.0022110553747132
  88    -0.0031907183332789
  89    0.0087615442645156
  90    8.7048715466141e-05
  91    0.00067526536042712
  92    1.1848248340435e-05
  93    0.00019957806591919
  94    -0.00026530814110503
  95    -0.00014564743335413
  96    0.00096471399905884
  97    -0.0017792886023241
  98    0.00020880423720814
  99    0.00094260426021444
 100    0.00015685065520941
 101    -0.0010788671163594
 102    0.0017346620283344
 103    9.6040194091994e-06
 104    -0.001868502382154
 105    0.0022160365608182
 106    0.0024735381407617
 107    -0.0025250179031757
 108    -0.00022884616753361
 109    -0.00032710862901896
 110    0.00010290706397667
 111    0.00025119077898015
 112    -0.00014547978878201
 113    9.5955686103085e-05
 114    -0.00065553247934729
 115    0.0010111794477505
 116    0.0024263194991212
 117    -0.0017215642204181
 118    6.477092897647e-07
 119    -0.00099807854004083
 120    -0.0031707383226273
 121    0.00017559551802338
 122    -0.0017162279456849
 123    -0.0038851536803662
 124    -0.0027267131194878
 125    -0.0023246393492499
 126    -6.7347633904073e-05
 127    -0.00021002931169299
 128    -0.00014706561590721
 129    -0.00042209476476901
 130    0.00011119067367031
 131    -0.0018815217290568
 132     0.012409154427714
 133     -0.01737911238825
 134    -0.010248661081832
 135    0.0067782261349506
 136    -0.0045966641156593
 137     0.025326415642036
 138     0.011437175110397
 139    -0.0076299331377831
 140     0.043691978400749
 141     0.019648013886738
 142     -0.01196149388603
 143     0.073166658374327
 144    0.0016995357540794
 145    0.00045303348743974
 146    -0.0011473363621665
 147    0.0010043931071783
 148    0.0013557188273241
 149    0.0057564224834662
 150    -0.037775337129872
 151     0.050256610228301
 152     0.038231002354961
 153     0.032667120489654
 154    -0.028083506206224
 155     0.041937449371011
 156     0.056188356493163
 157    -0.048298135278991
 158     0.071729250957983
 159     0.095121937521603
 160    -0.081774450877633
 161      0.12304722095494
 162    0.0012619602233595
 163    0.0015115941496289
 164    -0.00091006174998123
 165    0.00081098731135212
 166    -0.00045745317447996
 167    -0.0032963019930921
 168     0.021616312701728
 169    -0.029208535319034
 170    -0.020232263389251
 171    -0.002982907828074
 172    -0.036032627503721
 173    -0.0006603527868053
 174    -0.0054222692308879
 175    -0.061313230947922
 176    -0.00099361905816689
 177    -0.0080454131142485
 178     -0.10620988432579
 179    -0.0029411989085023
 180    -0.00036888233585954
 181    -0.0010899175215473
 182    -0.0020704171898224