[Molden Format]
made by pyscf v[2.1.1]
[Atoms] (AU)
Fe   1   26     3.17068844873907     0.00098706064664     0.12237737881307
O   2   8     0.00000000000000     0.00000000000000    -0.89004350580623
Fe   3   26    -3.17068844873907    -0.00098706064664     0.12237737881307
Cl   4   17     3.53383895113107    -2.07485195383062     3.76228752659000
Cl   5   17     5.54152580550813    -1.85590924879884    -2.78672786652360
Cl   6   17     4.48169216485503     3.92976278472880    -0.95330240907949
Cl   7   17    -3.53383895113107     2.07485195383062     3.76228752659000
Cl   8   17    -5.54152580550813     1.85590924879884    -2.78672786652360
Cl   9   17    -4.48169216485503    -3.92976278472880    -0.95330240907949
[GTO]
1 0
 s    6 1.00
          60923.640643  0.0017552243692958
          9147.8893982   0.013449023284001
          2081.3505927   0.066678874640978
          587.55977067    0.23176348548844
           191.0904399    0.46945550248188
          65.732730112     0.3596824938678
 s    3 1.00
          127.25891928   -0.10723431835929
           14.83091301    0.62971616328466
          6.0653307408    0.44472317896179
 s    3 1.00
           10.44994371   -0.21694289195548
          1.7245228003    0.69457867408393
         0.71772177325    0.43298308896347
 s    1 1.00
        0.091449828308                   1
 s    1 1.00
        0.033706691021                   1
 p    5 1.00
          773.43750995  0.0091440529992506
          182.15149714   0.067887577136571
          57.547272758    0.26167978878504
          20.614988935    0.51088040113251
           7.634855789    0.33235475570224
 p    3 1.00
           3.871932799    0.33193859098144
          1.4924724132     0.5553666555499
         0.56061284958    0.23106034201617
 p    1 1.00
              0.134915                   1
 d    4 1.00
          38.968133419   0.033335938558743
          10.800067078    0.17766212505983
          3.6136457999      0.441281781625
          1.2129967888    0.57089200490673
 d    1 1.00
          0.3652439317                   1
 f    1 1.00
                 1.598                   1

2 0
 s    5 1.00
          2266.1767785  -0.0053893503921743
          340.87010191   -0.04023472138896
          77.363135167   -0.18008184205526
           21.47964494   -0.46828857657651
          6.6589433124   -0.44692617160187
 s    1 1.00
         0.80975975668                   1
 s    1 1.00
         0.25530772234                   1
 p    3 1.00
          17.721504317   0.062630248763161
           3.863550544    0.33331138482352
          1.0480920883    0.74148638308122
 p    1 1.00
         0.27641544411                   1
 d    1 1.00
                   1.2                   1

3 0
 s    6 1.00
          60923.640643  0.0017552243692958
          9147.8893982   0.013449023284001
          2081.3505927   0.066678874640978
          587.55977067    0.23176348548844
           191.0904399    0.46945550248188
          65.732730112     0.3596824938678
 s    3 1.00
          127.25891928   -0.10723431835929
           14.83091301    0.62971616328466
          6.0653307408    0.44472317896179
 s    3 1.00
           10.44994371   -0.21694289195548
          1.7245228003    0.69457867408393
         0.71772177325    0.43298308896347
 s    1 1.00
        0.091449828308                   1
 s    1 1.00
        0.033706691021                   1
 p    5 1.00
          773.43750995  0.0091440529992506
          182.15149714   0.067887577136571
          57.547272758    0.26167978878504
          20.614988935    0.51088040113251
           7.634855789    0.33235475570224
 p    3 1.00
           3.871932799    0.33193859098144
          1.4924724132     0.5553666555499
         0.56061284958    0.23106034201617
 p    1 1.00
              0.134915                   1
 d    4 1.00
          38.968133419   0.033335938558743
          10.800067078    0.17766212505983
          3.6136457999      0.441281781625
          1.2129967888    0.57089200490673
 d    1 1.00
          0.3652439317                   1
 f    1 1.00
                 1.598                   1

4 0
 s    5 1.00
          10449.827566  0.0054265953789407
          1571.7365221   0.040626378128836
          357.12065523    0.18359747852877
          100.25185935    0.47438948768198
          30.812727554    0.43735181104122
 s    3 1.00
          51.923789434  -0.092754154848099
          5.7045760975    0.56380825544207
          2.3508376809    0.50367044629712
 s    1 1.00
         0.44605124672                   1
 s    1 1.00
          0.1684885619                   1
 p    5 1.00
          307.66790569  -0.0088797025588865
          72.102015515  -0.064284071721237
          22.532680262   -0.24288739736006
          7.8991765444   -0.48340836369878
          2.8767268321   -0.38952563875509
 p    1 1.00
         0.77459363955                   1
 p    1 1.00
         0.21037699698                   1
 d    1 1.00
                  0.65                   1

5 0
 s    5 1.00
          10449.827566  0.0054265953789407
          1571.7365221   0.040626378128836
          357.12065523    0.18359747852877
          100.25185935    0.47438948768198
          30.812727554    0.43735181104122
 s    3 1.00
          51.923789434  -0.092754154848099
          5.7045760975    0.56380825544207
          2.3508376809    0.50367044629712
 s    1 1.00
         0.44605124672                   1
 s    1 1.00
          0.1684885619                   1
 p    5 1.00
          307.66790569  -0.0088797025588865
          72.102015515  -0.064284071721237
          22.532680262   -0.24288739736006
          7.8991765444   -0.48340836369878
          2.8767268321   -0.38952563875509
 p    1 1.00
         0.77459363955                   1
 p    1 1.00
         0.21037699698                   1
 d    1 1.00
                  0.65                   1

6 0
 s    5 1.00
          10449.827566  0.0054265953789407
          1571.7365221   0.040626378128836
          357.12065523    0.18359747852877
          100.25185935    0.47438948768198
          30.812727554    0.43735181104122
 s    3 1.00
          51.923789434  -0.092754154848099
          5.7045760975    0.56380825544207
          2.3508376809    0.50367044629712
 s    1 1.00
         0.44605124672                   1
 s    1 1.00
          0.1684885619                   1
 p    5 1.00
          307.66790569  -0.0088797025588865
          72.102015515  -0.064284071721237
          22.532680262   -0.24288739736006
          7.8991765444   -0.48340836369878
          2.8767268321   -0.38952563875509
 p    1 1.00
         0.77459363955                   1
 p    1 1.00
         0.21037699698                   1
 d    1 1.00
                  0.65                   1

7 0
 s    5 1.00
          10449.827566  0.0054265953789407
          1571.7365221   0.040626378128836
          357.12065523    0.18359747852877
          100.25185935    0.47438948768198
          30.812727554    0.43735181104122
 s    3 1.00
          51.923789434  -0.092754154848099
          5.7045760975    0.56380825544207
          2.3508376809    0.50367044629712
 s    1 1.00
         0.44605124672                   1
 s    1 1.00
          0.1684885619                   1
 p    5 1.00
          307.66790569  -0.0088797025588865
          72.102015515  -0.064284071721237
          22.532680262   -0.24288739736006
          7.8991765444   -0.48340836369878
          2.8767268321   -0.38952563875509
 p    1 1.00
         0.77459363955                   1
 p    1 1.00
         0.21037699698                   1
 d    1 1.00
                  0.65                   1

8 0
 s    5 1.00
          10449.827566  0.0054265953789407
          1571.7365221   0.040626378128836
          357.12065523    0.18359747852877
          100.25185935    0.47438948768198
          30.812727554    0.43735181104122
 s    3 1.00
          51.923789434  -0.092754154848099
          5.7045760975    0.56380825544207
          2.3508376809    0.50367044629712
 s    1 1.00
         0.44605124672                   1
 s    1 1.00
          0.1684885619                   1
 p    5 1.00
          307.66790569  -0.0088797025588865
          72.102015515  -0.064284071721237
          22.532680262   -0.24288739736006
          7.8991765444   -0.48340836369878
          2.8767268321   -0.38952563875509
 p    1 1.00
         0.77459363955                   1
 p    1 1.00
         0.21037699698                   1
 d    1 1.00
                  0.65                   1

9 0
 s    5 1.00
          10449.827566  0.0054265953789407
          1571.7365221   0.040626378128836
          357.12065523    0.18359747852877
          100.25185935    0.47438948768198
          30.812727554    0.43735181104122
 s    3 1.00
          51.923789434  -0.092754154848099
          5.7045760975    0.56380825544207
          2.3508376809    0.50367044629712
 s    1 1.00
         0.44605124672                   1
 s    1 1.00
          0.1684885619                   1
 p    5 1.00
          307.66790569  -0.0088797025588865
          72.102015515  -0.064284071721237
          22.532680262   -0.24288739736006
          7.8991765444   -0.48340836369878
          2.8767268321   -0.38952563875509
 p    1 1.00
         0.77459363955                   1
 p    1 1.00
         0.21037699698                   1
 d    1 1.00
                  0.65                   1

[5d]
[7f]
[9g]

[MO]
 Sym= B
 Ene=               0
 Spin= Alpha
 Occup=    1.00000
   1    8.1248092940887e-05
   2    -0.00037545581916762
   3    0.00057417837368961
   4     0.017454064590033
   5    0.0020977495704946
   6    0.0010825409945641
   7    -0.0048307807182256
   8    0.00026009626482946
   9    -0.0036424503330167
  10     0.016613393660791
  11    -0.00094192005894921
  12    -0.0063968970302614
  13    -0.098432207253662
  14    0.00059414228345258
  15    -0.011740677090393
  16     0.011719283021585
  17     0.028435519532242
  18    0.0043433628371268
  19      0.11097281480082
  20    -0.0032945167170411
  21    0.0053573663469499
  22     0.017631637574134
  23    0.0024851282447163
  24     0.070908846247527
  25    0.00027036964790304
  26    9.0063032374461e-05
  27    0.00071785739525951
  28    -0.00029130710861332
  29    -0.0019528621962369
  30    -0.00042551318551962
  31    -0.0040407851579239
  32    -1.1173613342791e-15
  33    -3.8772859184491e-15
  34    -2.9011695367736e-15
  35     0.048334269456718
  36     -0.55308729593033
  37    6.3952202855146e-14
  38     0.041588091943431
  39     -0.47538383691133
  40    5.5727404006138e-14
  41    1.4368258116415e-15
  42    0.0012327636689292
  43    -0.011331568000773
  44    1.3977639657141e-16
  45    1.3862702118303e-17
  46    -8.1248092940964e-05
  47    0.0003754558191678
  48    -0.00057417837369117
  49    -0.017454064590018
  50    -0.0020977495705025
  51    0.0010825409945642
  52    -0.0048307807182257
  53    -0.0002600962648283
  54    -0.003642450333017
  55     0.016613393660791
  56    0.00094192005894525
  57    -0.0063968970302486
  58    -0.098432207253662
  59    -0.00059414228343142
  60     0.011740677090376
  61     0.011719283021599
  62      0.02843551953224
  63    -0.0043433628371093
  64     -0.11097281480082
  65    0.0032945167170316
  66    0.0053573663469606
  67     0.017631637574134
  68    -0.0024851282447071
  69    -0.070908846247527
  70    -0.00027036964790324
  71    9.0063032373613e-05
  72    0.00071785739525948
  73    0.00029130710861368
  74    0.0019528621962369
  75    -0.00042551318551905
  76    -0.0040407851579239
  77    -0.00041614124610899
  78    0.0027872548000459
  79    -0.0028511660872519
  80    -0.017945398920178
  81     0.001324712948187
  82    0.0011234698647424
  83    0.0023581134816356
  84    0.0032282210476441
  85    0.0016529114294916
  86    0.0033439984721388
  87    0.0023002628480389
  88    0.0033859063797679
  89     0.019077554339797
  90    -0.00024435851128596
  91    0.0024192630194957
  92    0.00069452098230759
  93    0.0010216532717158
  94    -1.1040477125665e-05
  95    -0.00038266958872996
  96     0.002565217881049
  97    -0.003535264325264
  98    -0.013574450030081
  99    0.0018836066847696
 100    0.00046792248506603
 101    -0.0014932216090834
 102    0.0036549707484802
 103    0.00014145355088111
 104    -0.0017585948991473
 105    0.0094804629808022
 106    0.0049431637126457
 107    -0.012478201029879
 108    -0.0019707777993388
 109    -0.0003732395562994
 110    -0.0001375462514793
 111    0.0014987659947732
 112    0.00010959874835506
 113    0.00067265966884929
 114    -0.0046529828508186
 115    0.0076282229235755
 116     0.020035063291479
 117    -0.0028049095732158
 118    -0.001820695873984
 119    0.00088106756954518
 120    -0.0062711410150443
 121    -0.0025210503637237
 122    0.00070804444328065
 123    -0.0091068950500281
 124    -0.019080940031155
 125    0.0093370130895326
 126    0.0013808792949474
 127    -1.8538476620482e-05
 128    -0.0016755846320716
 129    -0.0038991218785093
 130    -0.0030886919201727
 131    0.00041614124610876
 132    -0.0027872548000444
 133    0.0028511660872489
 134     0.017945398920175
 135    0.0013247129481862
 136    0.0011234698647431
 137    -0.0023581134816348
 138    0.0032282210476424
 139    0.0016529114294926
 140    -0.0033439984721375
 141    0.0023002628480365
 142    0.0033859063797723
 143    -0.019077554339792
 144    0.00024435851128578
 145    0.0024192630194949
 146    0.00069452098230753
 147    -0.0010216532717153
 148    1.1040477125219e-05
 149    0.00038266958873003
 150    -0.0025652178810495
 151    0.0035352643252635
 152     0.013574450030088
 153    0.0018836066847699
 154    0.00046792248506587
 155    0.0014932216090834
 156     0.003654970748481
 157    0.00014145355088104
 158     0.001758594899147
 159    0.0094804629808046
 160    0.0049431637126429
 161     0.012478201029881
 162    0.0019707777993392
 163    -0.00037323955629919
 164    -0.00013754625147972
 165    -0.0014987659947736
 166    -0.00010959874835496
 167    -0.0006726596688493
 168    0.0046529828508187
 169    -0.0076282229235767
 170    -0.020035063291475
 171    -0.0028049095732159
 172    -0.0018206958739841
 173    -0.0008810675695457
 174    -0.0062711410150444
 175    -0.0025210503637241
 176    -0.00070804444328147
 177    -0.0091068950500287
 178    -0.019080940031153
 179    -0.0093370130895348
 180    -0.0013808792949475
 181    -1.8538476620185e-05
 182    -0.0016755846320714
 183     0.003899121878509
 184    0.0030886919201726
 Sym= A
 Ene=               1
 Spin= Alpha
 Occup=    1.00000
   1    -0.00038622019638671
   2    0.00080647511202905
   3    -0.0065428453423792
   4       0.0610161562506
   5    -0.033417430995862
   6    -0.00021246170831741
   7    0.00025865594891655
   8    0.0048703566275389
   9    0.00098698778757521
  10    -0.00076855216697643
  11    -0.016738911243413
  12    -0.054684799816453
  13    -0.0021427875434636
  14      0.08989109995369
  15    -0.073575214894405
  16    -0.061225930856473
  17    0.0092917979406899
  18     0.074530103436865
  19    -0.0029110971010215
  20    -0.040762137518911
  21    -0.045558402513371
  22    0.0021319395270414
  23     0.039159248241667
  24    -0.0013681084378663
  25    -0.00085997824397944
  26    0.0036021373543425
  27    0.00014368432819136
  28    0.0015257523653715
  29    2.9248913127576e-05
  30    -0.0024235562727921
  31    -5.7777294626409e-06
  32    -0.0094944661508392
  33    -0.032947045445001
  34    -0.024646088398161
  35    -1.0707216020444e-14
  36    6.3878406285744e-14
  37      0.54707354341943
  38    -1.0235342259315e-14
  39    5.4567260404752e-14
  40      0.46973435692462
  41     0.012208676836916
  42    -2.9961939595802e-16
  43    1.3037163987671e-15
  44    0.0011863244122696
  45    0.00011691193812827
  46    -0.00038622019638671
  47    0.00080647511202899
  48    -0.0065428453423793
  49     0.061016156250607
  50    -0.033417430995862
  51    0.0002124617083171
  52    -0.00025865594891545
  53     0.004870356627539
  54    -0.00098698778757417
  55    0.00076855216697267
  56    -0.016738911243414
  57     0.054684799816456
  58    0.0021427875434863
  59      0.08989109995369
  60    -0.073575214894409
  61     0.061225930856469
  62    -0.0092917979406963
  63     0.074530103436869
  64    -0.0029110971009963
  65    -0.040762137518912
  66     0.045558402513368
  67    -0.0021319395270454
  68     0.039159248241669
  69    -0.0013681084378501
  70    -0.00085997824397932
  71    -0.0036021373543425
  72    -0.00014368432819153
  73    0.0015257523653714
  74    2.9248913127123e-05
  75    0.0024235562727923
  76    5.777729463571e-06
  77    -0.00090705156366851
  78    0.0062684566623032
  79    -0.012709425142932
  80    -0.015547985993716
  81    0.0033354756451448
  82    -0.0030055578530626
  83    0.0032406448758687
  84    0.0068832104460458
  85    -0.0045112577964004
  86    0.0057622295575912
  87     0.010118548981917
  88    -0.018944756455616
  89     0.018967541026881
  90    -0.00075334948589634
  91    0.0031453725992985
  92    0.00025844088108632
  93    0.0020752815982904
  94    -0.0018934867947907
  95    0.00028971422394849
  96    -0.0018140897265412
  97    -0.001957878636328
  98      0.03006478341094
  99    -0.0014929486128612
 100    0.00066425360349148
 101    -0.00027198717578093
 102    -0.0030299570223798
 103    0.00028956117988976
 104    -0.0011362871876727
 105     -0.01044971000973
 106     0.011985094073609
 107    0.0075023356139576
 108    0.0019957389585097
 109    -0.00092772327734102
 110    0.0017862128272749
 111    -0.0020646153730395
 112    0.00041661945898399
 113    -5.7386431718538e-05
 114    0.00049663256110526
 115    -0.005341097534346
 116     0.016993614989457
 117    0.00050226890937838
 118    0.00067119928557495
 119    -0.0021341200565549
 120    0.00038133140771231
 121    0.0020245697119691
 122    -0.003450201096113
 123    0.0026636642180015
 124    -0.0077218219363619
 125    -0.009265101446466
 126    -0.0005177901067458
 127    -0.0012618678555469
 128    -0.0010350061140132
 129    -0.00096591496308336
 130    -0.00057766932961181
 131    -0.00090705156366862
 132    0.0062684566623039
 133    -0.012709425142932
 134    -0.015547985993721
 135    -0.0033354756451451
 136    0.0030055578530624
 137    0.0032406448758692
 138    -0.0068832104460465
 139    0.0045112577964001
 140     0.005762229557592
 141    -0.010118548981917
 142     0.018944756455615
 143     0.018967541026885
 144    -0.00075334948589637
 145    -0.003145372599299
 146    -0.00025844088108644
 147    0.0020752815982906
 148    -0.0018934867947907
 149    0.00028971422394839
 150    -0.0018140897265405
 151    -0.0019578786363291
 152     0.030064783410937
 153    0.0014929486128607
 154    -0.00066425360349154
 155    -0.00027198717578136
 156    0.0030299570223789
 157    -0.00028956117988971
 158    -0.0011362871876733
 159     0.010449710009728
 160     -0.01198509407361
 161    0.0075023356139546
 162    0.0019957389585092
 163    0.00092772327734114
 164    -0.0017862128272749
 165    -0.0020646153730391
 166    0.00041661945898398
 167    -5.7386431718387e-05
 168    0.00049663256110424
 169    -0.0053410975343444
 170     0.016993614989461
 171    -0.00050226890937776
 172    -0.00067119928557454
 173    -0.0021341200565548
 174    -0.00038133140771089
 175    -0.0020245697119685
 176    -0.0034502010961129
 177    -0.0026636642179995
 178    0.0077218219363663
 179    -0.0092651014464639
 180    -0.00051779010674552
 181    0.0012618678555469
 182    0.0010350061140136
 183    -0.00096591496308427
 184    -0.00057766932961245
 Sym= B
 Ene=               2
 Spin= Alpha
 Occup=    1.00000
   1    0.00017145646436613
   2    0.00039578144251761
   3    0.0058174659558627
   4     -0.13269917566886
   5     0.026490423933632
   6    -0.0045615409218457
   7    -0.00048678960164444
   8    -0.0027100339061332
   9     0.015279110783865
  10    0.0016427260919822
  11    0.0088894071094194
  12     0.070152795931425
  13    -0.0077534388398857
  14     0.015305567478532
  15     0.048848433165256
  16     -0.09422393613407
  17    0.00022539158110927
  18     -0.12090207704816
  19     0.010352498117329
  20     0.022677509955356
  21    -0.043278591152302
  22    0.0012413369645628
  23    -0.055253934001554
  24    0.0063565083818167
  25    -0.0027616144385584
  26    -0.0015098821847893
  27    -3.5914116103328e-05
  28    0.0039540235281209
  29    -0.0001353373472529
  30    0.0042307107134016
  31    -0.00043989295436564
  32    9.772016235858e-17
  33    3.4505042303496e-16
  34    2.585058316376e-16
  35     -0.51597483174301
  36    -0.055374975900893
  37    -5.8718755521885e-15
  38     -0.42673179258475
  39    -0.046743182513469
  40    -5.0226629433941e-15
  41    -1.3043772409503e-16
  42    -0.013969167153365
  43    -0.001213310388342
  44    -1.3385968514211e-17
  45    -1.7239106087155e-18
  46    -0.00017145646436608
  47    -0.00039578144251754
  48    -0.0058174659558627
  49      0.13269917566886
  50    -0.026490423933631
  51    -0.0045615409218457
  52    -0.00048678960164443
  53    0.0027100339061331
  54     0.015279110783865
  55    0.0016427260919822
  56    -0.008889407109419
  57     0.070152795931424
  58    -0.0077534388398858
  59    -0.015305567478534
  60    -0.048848433165254
  61    -0.094223936134072
  62    0.00022539158110927
  63      0.12090207704816
  64    -0.010352498117328
  65    -0.022677509955355
  66    -0.043278591152303
  67    0.0012413369645628
  68     0.055253934001553
  69    -0.0063565083818167
  70    0.0027616144385584
  71    -0.0015098821847893
  72    -3.5914116103326e-05
  73    -0.0039540235281209
  74    0.0001353373472529
  75    0.0042307107134016
  76    -0.00043989295436564
  77    0.00035012628122294
  78    -0.0023288419198684
  79    0.0032349310373745
  80    0.0086384174093953
  81    0.00042056634882298
  82    0.0014875025376759
  83    -0.0017688941257392
  84    0.0012089141826127
  85    0.0023608149299406
  86    -0.0029212433445851
  87    -0.0038237227993423
  88    0.0065679272527445
  89    -0.0083176797902674
  90    -0.0011010615317847
  91    -0.00043616991187727
  92    0.0013964582128291
  93    8.9286827440516e-05
  94    6.6529791409721e-05
  95    0.00039650751654318
  96    -0.0028633147471035
  97    0.0091890662350753
  98    -0.0036211759214486
  99    -0.00072075211530136
 100    0.00063704704629379
 101    0.0013139244033786
 102    -0.001906394228202
 103     0.001583352511783
 104    0.0028884584525253
 105    -0.0026398806709568
 106    2.1578410807771e-05
 107    0.00012159311783359
 108    0.00053169301234736
 109    0.0017987587627485
 110    -0.0012325099562308
 111    -0.0020889658139211
 112     0.001869391056205
 113    0.0004039576551859
 114    -0.0028482000375884
 115    0.0070827448028727
 116    0.0050633120906458
 117    -0.00044392577513947
 118    -0.001646350777005
 119     0.001027690498619
 120    -0.00064641223638515
 121    -0.0033438982472964
 122    0.0016876230417687
 123    -0.0064364591438436
 124    -0.0059852026555211
 125    0.0033059541341704
 126    0.0020437336513908
 127    -0.00020232318980223
 128    0.00021930617419895
 129    -7.2565292053613e-05
 130    -0.0033673615489392
 131    -0.00035012628122277
 132    0.0023288419198682
 133    -0.0032349310373743
 134    -0.008638417409395
 135    0.00042056634882305
 136    0.0014875025376759
 137    0.0017688941257391
 138    0.0012089141826129
 139    0.0023608149299405
 140     0.002921243344585
 141    -0.0038237227993421
 142    0.0065679272527441
 143    0.0083176797902669
 144    0.0011010615317847
 145    -0.0004361699118772
 146    0.0013964582128291
 147    -8.9286827440561e-05
 148    -6.6529791409681e-05
 149    -0.00039650751654319
 150    0.0028633147471036
 151    -0.0091890662350753
 152     0.003621175921448
 153    -0.0007207521153014
 154    0.00063704704629381
 155    -0.0013139244033787
 156    -0.0019063942282021
 157     0.001583352511783
 158    -0.0028884584525253
 159    -0.002639880670957
 160    2.1578410808048e-05
 161    -0.00012159311783379
 162    -0.00053169301234741
 163    0.0017987587627484
 164    -0.0012325099562308
 165    0.0020889658139212
 166    -0.001869391056205
 167    -0.00040395765518589
 168    0.0028482000375883
 169    -0.0070827448028726
 170    -0.0050633120906461
 171    -0.00044392577513945
 172    -0.001646350777005
 173    -0.001027690498619
 174    -0.00064641223638513
 175    -0.0033438982472964
 176    -0.0016876230417686
 177    -0.0064364591438436
 178    -0.0059852026555213
 179    -0.0033059541341702
 180    -0.0020437336513908
 181    -0.00020232318980225
 182    0.00021930617419893
 183    7.2565292053634e-05
 184    0.0033673615489392
 Sym= B
 Ene=               3
 Spin= Alpha
 Occup=    1.00000
   1    -0.00036158644155981
   2    0.0010647215936724
   3    -0.0049341101194709
   4    0.00082319776837808
   5    -0.00057416748263499
   6    -0.001138398607252
   7    -0.012525520916375
   8    -0.00085388529949044
   9    0.0038867127978342
  10     0.039224869119351
  11    0.0027680962410061
  12    -0.00011709479775166
  13     0.011608055021995
  14    -0.00087003359281447
  15    0.0056224252902723
  16    -0.0025808512749908
  17    -0.019811679223819
  18    0.0045076741113548
  19    -0.077892023633219
  20    -0.0008048518383998
  21    0.00038630303308875
  22    -0.00034689459581262
  23    -0.00035986284993048
  24    -0.00014239809384043
  25    3.1324198372658e-05
  26    -5.7218678593309e-05
  27    7.1237490625973e-05
  28    0.00014117660964236
  29    -0.00013909017554271
  30    -4.0223023260763e-05
  31    -0.00016648943698525
  32    1.8569500003138e-17
  33    3.5349272801002e-17
  34    1.7965541071395e-16
  35    -0.031620139920064
  36       1.0112098556775
  37    1.3850419157359e-15
  38     0.027736133382428
  39      -1.0094091437816
  40    -1.1088920862356e-15
  41    -1.4196614477646e-17
  42    -3.0022112932185e-05
  43    6.7934527195515e-05
  44    -6.1871800165564e-18
  45    -1.1391669037399e-17
  46    0.00036158644155983
  47    -0.0010647215936724
  48    0.0049341101194711
  49    -0.00082319776837831
  50    0.00057416748263512
  51    -0.001138398607252
  52    -0.012525520916375
  53    0.00085388529949042
  54    0.0038867127978343
  55     0.039224869119351
  56    -0.002768096241006
  57    -0.00011709479775193
  58     0.011608055021995
  59    0.00087003359281438
  60    -0.0056224252902724
  61    -0.0025808512749906
  62    -0.019811679223819
  63    -0.0045076741113546
  64     0.077892023633219
  65    0.00080485183840001
  66    0.00038630303308898
  67    -0.0003468945958129
  68    0.00035986284993041
  69    0.00014239809384075
  70    -3.1324198372651e-05
  71    -5.7218678593291e-05
  72    7.123749062597e-05
  73    -0.00014117660964237
  74    0.00013909017554271
  75    -4.0223023260767e-05
  76    -0.00016648943698524
  77    -0.00063401096530829
  78    0.0040397806867532
  79    -0.0055529914080672
  80    -0.0015543280222693
  81    0.0040857484335003
  82    0.00091691908209349
  83    0.0060166788169607
  84    0.0069711196651848
  85    0.0015600312343729
  86     0.010274494610445
  87     0.010518183792937
  88    0.0024580176659554
  89     0.014102791927105
  90    -0.00079861367815357
  91    -0.00030442588766198
  92    0.00039169356534544
  93    -1.321773611697e-05
  94    0.00018737586389546
  95    -0.0007063378517522
  96    0.0045045981240778
  97    -0.0060541096304169
  98    -0.0026617895192946
  99    0.0069165579219747
 100    0.00056890496107934
 101    -0.0031383378172491
 102     0.011846488032771
 103    0.0010377651617478
 104    -0.0053499888549333
 105      0.01714179673648
 106    0.00093690751323109
 107    -0.0071470486772979
 108    -0.00028225551205841
 109    0.00079720079502698
 110    -0.00017025143673605
 111    -0.00039666025210986
 112    0.00019240895504076
 113    0.0015851571118387
 114    -0.010150415701858
 115     0.013996064243393
 116    0.0055871260352016
 117    -0.012266746966067
 118    -0.0081307755781035
 119    0.0011730998210721
 120    -0.021113038894017
 121    -0.013963056294529
 122    0.0019380131028066
 123    -0.031010540494548
 124    -0.019202605838963
 125    0.0023887034813909
 126    -0.00055944328225107
 127    -0.00050894864301036
 128    -0.00073132126773815
 129    -0.00081760085765527
 130    0.0011484644675814
 131    0.0006340109653083
 132    -0.0040397806867533
 133    0.0055529914080673
 134    0.0015543280222695
 135    0.0040857484335003
 136    0.00091691908209348
 137    -0.0060166788169607
 138    0.0069711196651848
 139    0.0015600312343729
 140    -0.010274494610445
 141     0.010518183792937
 142    0.0024580176659554
 143    -0.014102791927105
 144    0.00079861367815357
 145    -0.00030442588766199
 146    0.00039169356534545
 147    1.3217736116957e-05
 148    -0.00018737586389546
 149    0.00070633785175219
 150    -0.0045045981240777
 151    0.0060541096304168
 152    0.0026617895192945
 153    0.0069165579219747
 154    0.00056890496107937
 155    0.0031383378172491
 156     0.011846488032771
 157    0.0010377651617478
 158    0.0053499888549333
 159      0.01714179673648
 160    0.00093690751323119
 161    0.0071470486772978
 162    0.00028225551205843
 163    0.00079720079502698
 164    -0.00017025143673601
 165    0.00039666025210989
 166    -0.00019240895504076
 167    -0.0015851571118387
 168     0.010150415701858
 169    -0.013996064243393
 170    -0.0055871260352017
 171    -0.012266746966067
 172    -0.0081307755781035
 173    -0.0011730998210721
 174    -0.021113038894017
 175    -0.013963056294529
 176    -0.0019380131028066
 177    -0.031010540494547
 178    -0.019202605838963
 179    -0.0023887034813909
 180    0.00055944328225111
 181    -0.00050894864301036