[Molden Format]
made by pyscf v[2.1.1]
[Atoms] (AU)
Fe   1   26     3.17068844873907     0.00098706064664     0.12237737881307
O   2   8     0.00000000000000     0.00000000000000    -0.89004350580623
Fe   3   26    -3.17068844873907    -0.00098706064664     0.12237737881307
Cl   4   17     3.53383895113107    -2.07485195383062     3.76228752659000
Cl   5   17     5.54152580550813    -1.85590924879884    -2.78672786652360
Cl   6   17     4.48169216485503     3.92976278472880    -0.95330240907949
Cl   7   17    -3.53383895113107     2.07485195383062     3.76228752659000
Cl   8   17    -5.54152580550813     1.85590924879884    -2.78672786652360
Cl   9   17    -4.48169216485503    -3.92976278472880    -0.95330240907949
[GTO]
1 0
 s    6 1.00
          60923.640643  0.0017552243692958
          9147.8893982   0.013449023284001
          2081.3505927   0.066678874640978
          587.55977067    0.23176348548844
           191.0904399    0.46945550248188
          65.732730112     0.3596824938678
 s    3 1.00
          127.25891928   -0.10723431835929
           14.83091301    0.62971616328466
          6.0653307408    0.44472317896179
 s    3 1.00
           10.44994371   -0.21694289195548
          1.7245228003    0.69457867408393
         0.71772177325    0.43298308896347
 s    1 1.00
        0.091449828308                   1
 s    1 1.00
        0.033706691021                   1
 p    5 1.00
          773.43750995  0.0091440529992506
          182.15149714   0.067887577136571
          57.547272758    0.26167978878504
          20.614988935    0.51088040113251
           7.634855789    0.33235475570224
 p    3 1.00
           3.871932799    0.33193859098144
          1.4924724132     0.5553666555499
         0.56061284958    0.23106034201617
 p    1 1.00
              0.134915                   1
 d    4 1.00
          38.968133419   0.033335938558743
          10.800067078    0.17766212505983
          3.6136457999      0.441281781625
          1.2129967888    0.57089200490673
 d    1 1.00
          0.3652439317                   1
 f    1 1.00
                 1.598                   1

2 0
 s    5 1.00
          2266.1767785  -0.0053893503921743
          340.87010191   -0.04023472138896
          77.363135167   -0.18008184205526
           21.47964494   -0.46828857657651
          6.6589433124   -0.44692617160187
 s    1 1.00
         0.80975975668                   1
 s    1 1.00
         0.25530772234                   1
 p    3 1.00
          17.721504317   0.062630248763161
           3.863550544    0.33331138482352
          1.0480920883    0.74148638308122
 p    1 1.00
         0.27641544411                   1
 d    1 1.00
                   1.2                   1

3 0
 s    6 1.00
          60923.640643  0.0017552243692958
          9147.8893982   0.013449023284001
          2081.3505927   0.066678874640978
          587.55977067    0.23176348548844
           191.0904399    0.46945550248188
          65.732730112     0.3596824938678
 s    3 1.00
          127.25891928   -0.10723431835929
           14.83091301    0.62971616328466
          6.0653307408    0.44472317896179
 s    3 1.00
           10.44994371   -0.21694289195548
          1.7245228003    0.69457867408393
         0.71772177325    0.43298308896347
 s    1 1.00
        0.091449828308                   1
 s    1 1.00
        0.033706691021                   1
 p    5 1.00
          773.43750995  0.0091440529992506
          182.15149714   0.067887577136571
          57.547272758    0.26167978878504
          20.614988935    0.51088040113251
           7.634855789    0.33235475570224
 p    3 1.00
           3.871932799    0.33193859098144
          1.4924724132     0.5553666555499
         0.56061284958    0.23106034201617
 p    1 1.00
              0.134915                   1
 d    4 1.00
          38.968133419   0.033335938558743
          10.800067078    0.17766212505983
          3.6136457999      0.441281781625
          1.2129967888    0.57089200490673
 d    1 1.00
          0.3652439317                   1
 f    1 1.00
                 1.598                   1

4 0
 s    5 1.00
          10449.827566  0.0054265953789407
          1571.7365221   0.040626378128836
          357.12065523    0.18359747852877
          100.25185935    0.47438948768198
          30.812727554    0.43735181104122
 s    3 1.00
          51.923789434  -0.092754154848099
          5.7045760975    0.56380825544207
          2.3508376809    0.50367044629712
 s    1 1.00
         0.44605124672                   1
 s    1 1.00
          0.1684885619                   1
 p    5 1.00
          307.66790569  -0.0088797025588865
          72.102015515  -0.064284071721237
          22.532680262   -0.24288739736006
          7.8991765444   -0.48340836369878
          2.8767268321   -0.38952563875509
 p    1 1.00
         0.77459363955                   1
 p    1 1.00
         0.21037699698                   1
 d    1 1.00
                  0.65                   1

5 0
 s    5 1.00
          10449.827566  0.0054265953789407
          1571.7365221   0.040626378128836
          357.12065523    0.18359747852877
          100.25185935    0.47438948768198
          30.812727554    0.43735181104122
 s    3 1.00
          51.923789434  -0.092754154848099
          5.7045760975    0.56380825544207
          2.3508376809    0.50367044629712
 s    1 1.00
         0.44605124672                   1
 s    1 1.00
          0.1684885619                   1
 p    5 1.00
          307.66790569  -0.0088797025588865
          72.102015515  -0.064284071721237
          22.532680262   -0.24288739736006
          7.8991765444   -0.48340836369878
          2.8767268321   -0.38952563875509
 p    1 1.00
         0.77459363955                   1
 p    1 1.00
         0.21037699698                   1
 d    1 1.00
                  0.65                   1

6 0
 s    5 1.00
          10449.827566  0.0054265953789407
          1571.7365221   0.040626378128836
          357.12065523    0.18359747852877
          100.25185935    0.47438948768198
          30.812727554    0.43735181104122
 s    3 1.00
          51.923789434  -0.092754154848099
          5.7045760975    0.56380825544207
          2.3508376809    0.50367044629712
 s    1 1.00
         0.44605124672                   1
 s    1 1.00
          0.1684885619                   1
 p    5 1.00
          307.66790569  -0.0088797025588865
          72.102015515  -0.064284071721237
          22.532680262   -0.24288739736006
          7.8991765444   -0.48340836369878
          2.8767268321   -0.38952563875509
 p    1 1.00
         0.77459363955                   1
 p    1 1.00
         0.21037699698                   1
 d    1 1.00
                  0.65                   1

7 0
 s    5 1.00
          10449.827566  0.0054265953789407
          1571.7365221   0.040626378128836
          357.12065523    0.18359747852877
          100.25185935    0.47438948768198
          30.812727554    0.43735181104122
 s    3 1.00
          51.923789434  -0.092754154848099
          5.7045760975    0.56380825544207
          2.3508376809    0.50367044629712
 s    1 1.00
         0.44605124672                   1
 s    1 1.00
          0.1684885619                   1
 p    5 1.00
          307.66790569  -0.0088797025588865
          72.102015515  -0.064284071721237
          22.532680262   -0.24288739736006
          7.8991765444   -0.48340836369878
          2.8767268321   -0.38952563875509
 p    1 1.00
         0.77459363955                   1
 p    1 1.00
         0.21037699698                   1
 d    1 1.00
                  0.65                   1

8 0
 s    5 1.00
          10449.827566  0.0054265953789407
          1571.7365221   0.040626378128836
          357.12065523    0.18359747852877
          100.25185935    0.47438948768198
          30.812727554    0.43735181104122
 s    3 1.00
          51.923789434  -0.092754154848099
          5.7045760975    0.56380825544207
          2.3508376809    0.50367044629712
 s    1 1.00
         0.44605124672                   1
 s    1 1.00
          0.1684885619                   1
 p    5 1.00
          307.66790569  -0.0088797025588865
          72.102015515  -0.064284071721237
          22.532680262   -0.24288739736006
          7.8991765444   -0.48340836369878
          2.8767268321   -0.38952563875509
 p    1 1.00
         0.77459363955                   1
 p    1 1.00
         0.21037699698                   1
 d    1 1.00
                  0.65                   1

9 0
 s    5 1.00
          10449.827566  0.0054265953789407
          1571.7365221   0.040626378128836
          357.12065523    0.18359747852877
          100.25185935    0.47438948768198
          30.812727554    0.43735181104122
 s    3 1.00
          51.923789434  -0.092754154848099
          5.7045760975    0.56380825544207
          2.3508376809    0.50367044629712
 s    1 1.00
         0.44605124672                   1
 s    1 1.00
          0.1684885619                   1
 p    5 1.00
          307.66790569  -0.0088797025588865
          72.102015515  -0.064284071721237
          22.532680262   -0.24288739736006
          7.8991765444   -0.48340836369878
          2.8767268321   -0.38952563875509
 p    1 1.00
         0.77459363955                   1
 p    1 1.00
         0.21037699698                   1
 d    1 1.00
                  0.65                   1

[5d]
[7f]
[9g]

[MO]
 Sym= A
 Ene=               0
 Spin= Alpha
 Occup=    1.00000
   1    0.0010904212147142
   2    -0.0032411830850009
   3     0.014516052390542
   4    -0.027648274137402
   5     0.012833356226558
   6    0.00035352439814277
   7    0.0024095808425521
   8    -0.0041815311642263
   9    -0.0011399093845959
  10    -0.007528675911157
  11     0.013007140722247
  12    0.0015977385955969
  13    0.0099295973133241
  14    -0.018968871693687
  15       0.2706925911011
  16     -0.46418125277287
  17     -0.39990338344537
  18      0.44289519953386
  19      0.35345868495557
  20     0.072803175083287
  21     -0.12443142622242
  22     -0.10846845720555
  23      0.12004780578918
  24     0.094680835851185
  25    0.0011627976561245
  26    -0.00089164091812483
  27    -0.00087547838062008
  28    -0.00021463225833879
  29    -2.3621084543738e-05
  30    0.00087076806729892
  31    0.00081553581220037
  32    0.0018747874489816
  33    0.0049137184456745
  34    0.0030143821472237
  35     0.009031211894203
  36     0.026466132401815
  37    -0.044109742822293
  38    0.0099214533117499
  39     0.025641481936364
  40    -0.042799026877855
  41    -0.00010511266620489
  42    0.0010602859869534
  43    -9.1086110300432e-06
  44    -8.8181632370644e-05
  45    -0.00046742217049976
  46    0.0004876425084757
  47    -0.0014557687964143
  48    0.0064953994008228
  49    -0.0067076676099092
  50    0.00096770463249807
  51    -0.0022577138988518
  52    0.00087831277406722
  53    -0.00073936287182785
  54    0.0072110855093945
  55    -0.0027955476560946
  56    0.0023609318210866
  57    -0.0063711035163422
  58    0.0053191840731989
  59    -0.0076746301107245
  60    0.0010899730226781
  61    -0.00090395567867551
  62    -6.7567211250813e-06
  63    -0.0016156354892129
  64    0.00094432028712027
  65     0.001244884702881
  66    -0.0021098166176117
  67    -0.00034355829463017
  68    -0.0007259624679006
  69    0.0016511262442511
  70    3.9748864203969e-05
  71    0.00035022763350228
  72    -2.9646302477659e-06
  73    -6.3870839985597e-05
  74    -0.00011750587525499
  75    -0.00025779398571627
  76    0.00022644429333768
  77    -0.0012771862188165
  78    0.0083753599038818
  79    -0.010667340547761
  80    -0.0058476685747471
  81     0.018745504053596
  82    -0.010912504559153
  83     0.007235763146169
  84     0.031773777065939
  85     -0.01870382207447
  86     0.012720904992709
  87     0.052450121595225
  88    -0.030414604993386
  89     0.019760070504841
  90    -0.00085593683375398
  91    0.0020625381887064
  92    -0.00064682055155116
  93    0.00063959431771358
  94    -0.0012754152638599
  95    -4.910813182223e-05
  96    0.00030905961614003
  97    0.00085194832392374
  98    -0.0043948021069433
  99    -0.0087741604790739
 100    -0.027039080289209
 101    0.0094400508438046
 102    -0.014775616610187
 103    -0.045571449923966
 104     0.015743258424963
 105    -0.023628759129858
 106      -0.0777487676945
 107     0.026424396317861
 108    -0.0010669498496455
 109    0.0013341909877933
 110    0.0016178750977502
 111    -0.0018842543336928
 112    -0.001419601294868
 113    0.00031917190113513
 114    -0.0021075369692821
 115    0.0041291560183157
 116    -0.002524300789901
 117    -0.015299079834675
 118    0.0067036025736071
 119     0.020149963721337
 120     -0.02566926136747
 121     0.011252658271581
 122     0.033820990295056
 123    -0.042809486162432
 124     0.020198510895564
 125      0.05695113901289
 126    -0.00082572012603734
 127    0.0012785486791276
 128     0.001356714546247
 129    -0.0017378513151132
 130    -0.00096774197032338
 131    0.00018445293484581
 132    -0.0012498867078734
 133    0.0024335353761788
 134    0.00085838898232697
 135    0.0011854390765738
 136    -0.00086800762594906
 137    -0.00051496173706022
 138    0.0022170228078222
 139    -0.0014876139280801
 140    -0.00091441113505182
 141    0.0028057156461685
 142    -0.0032226997601937
 143    -0.0019897397575983
 144    9.7564494604122e-05
 145    0.00024240033838067
 146    -6.2186383380524e-05
 147    -0.00013262139538749
 148    0.00024190421337749
 149    -8.781717823785e-05
 150    0.0005794263164299
 151    -0.00050770470969235
 152    -0.0033068029303028
 153    -0.0011642933758236
 154    -0.0001631097950917
 155    0.00060514377161574
 156    -0.0020302947715311
 157    -0.00031580142223455
 158    0.0011145514504781
 159    -0.003912150885358
 160    0.0004415465332767
 161    0.00010395172898484
 162    -6.6557150816537e-05
 163    -0.00013194145148909
 164    5.477617119479e-05
 165    0.00010559307775924
 166    4.270764953044e-05
 167    0.00015002667623348
 168    -0.0010090251392069
 169     0.001908836473027
 170    0.00048524045992503
 171    0.0012594106194753
 172    0.00057629468770114
 173    0.00068228885380372
 174    0.0022747705500322
 175    0.0010318903394288
 176     0.001102485829113
 177    0.0033187365458249
 178     0.001755268753775
 179    0.0025606196986534
 180    0.00013480460743356
 181    -0.0001039794231855
 182    1.8259847425719e-05
 183    -0.00019133947293143
 184    -0.00022999222192619
 Sym= A
 Ene=               1
 Spin= Alpha
 Occup=    1.00000
   1    -0.0009752730848859
   2    0.0028996039631098
   3    -0.012974935947467
   4     0.025121071830071
   5    -0.0097147282949313
   6    0.00016986629291656
   7    0.0062564077945712
   8    0.0038806953172865
   9    -0.00054525790122023
  10    -0.019225916279229
  11    -0.011878249041608
  12    0.0014297691566429
  13     0.027044840109565
  14     0.018484531826356
  15       0.4965864927461
  16       0.2383655989936
  17      0.52067991252265
  18     0.070678954439327
  19      0.43432273244996
  20       0.1333183409828
  21     0.063052526941442
  22      0.14004176931376
  23     0.018471089533533
  24      0.11510095270319
  25    0.00040885001399611
  26    0.0015337771835066
  27    0.00067900827586407
  28    0.00076818070472861
  29    0.0017163878797725
  30    -3.6014133946959e-05
  31    0.0013914687508272
  32    -0.002858072436692
  33    -0.0073384652453103
  34    -0.0041647476174531
  35    -0.012278931557797
  36      0.07196983377136
  37     0.050860976776332
  38    -0.013652761817115
  39     0.069270816919998
  40     0.049547840108792
  41    0.00065236228606281
  42    -0.001460318892606
  43    0.0011355681567051
  44    0.00055636234373884
  45    -0.0016181709709508
  46    -0.0006333300983438
  47    0.0018766212430085
  48    -0.0084964725937648
  49    0.0099958854094165
  50    -0.0021455128578234
  51    0.0027006142430768
  52    0.0020884366962317
  53    0.00061359414746989
  54    -0.008627499941646
  55    -0.0066500294780604
  56    -0.0019661392669236
  57    0.0070216575539069
  58     0.013436932778404
  59    0.0084035909442153
  60    -0.001583468762062
  61    0.00042787002061373
  62    -0.00051522769708114
  63    0.0016194860187882
  64    0.0020350272362497
  65    -0.0014801657812981
  66    0.0024190920434408
  67    -0.0011800987230972
  68    0.00063317906491282
  69    0.0047352483722488
  70    -2.1188966560008e-05
  71    -0.00040208911410324
  72    -0.00014668898427299
  73    0.00011402086078702
  74    -0.00033173470450228
  75    0.00032749329984543
  76    0.00062813594256194
  77    0.00020746634534148
  78    -0.0013545072881634
  79    0.0011685793497583
  80    0.0014321766099982
  81    3.589817429601e-05
  82    -0.021916961174856
  83    -0.014599686965004
  84    1.8242710374183e-05
  85    -0.036925409917932
  86    -0.024797106888453
  87    0.00022255143312106
  88    -0.062893657815329
  89    -0.041574792822029
  90    -0.0025043744953368
  91    8.1634738221681e-05
  92    -0.0012414719254346
  93    -0.0015331754211629
  94    9.9892451200455e-05
  95    -0.00036410665110358
  96    0.0024417977662978
  97    -0.0050088074926784
  98    0.0047284719986955
  99     0.017306088218005
 100    -0.005801433430929
 101      0.01308672644931
 102     0.029349881305347
 103    -0.0097091574554646
 104     0.022015147173426
 105     0.046594275822725
 106    -0.016552640397316
 107     0.038259309018864
 108    -0.0022552255177209
 109    -0.00022232344891108
 110    -0.00021275798739194
 111    0.0011458407120356
 112    -0.0010801624342224
 113    0.0010918757179597
 114     -0.00714737509716
 115    0.0091623006904838
 116    0.0040773914283828
 117    -0.013790685806135
 118    -0.010470445521615
 119    -0.010540597955699
 120    -0.023294636432028
 121    -0.017918018423797
 122    -0.017662185937025
 123    -0.038441829587819
 124    -0.029223124130543
 125     -0.03047689073933
 126    0.0010678517253692
 127    3.7414250873246e-05
 128    -0.001357795439671
 129    -0.00056159188885614
 130    -0.0010212657506701
 131    -0.00032878348463805
 132    0.0021797564101333
 133    -0.0030199625722857
 134    -0.0056611537882245
 135    -0.0026441358895584
 136    0.0001242493592788
 137    0.0020731629447779
 138    -0.0046696632673637
 139    0.00015805861922662
 140    0.0035154466913204
 141    -0.0070971272588538
 142    0.0018016046837819
 143    0.0085952259188634
 144    -5.0330293915872e-05
 145    -0.00059822194431584
 146    -5.0755243986311e-05
 147    0.0003211421555057
 148    -0.00013720572439269
 149    -8.9289324637158e-05
 150    0.00060048731413138
 151    -0.0012582114871859
 152    0.00047088146107954
 153    -0.00073460072766047
 154    -0.00042050875241958
 155    -0.00091880767850541
 156    -0.0013263044407761
 157    -0.00057372224705472
 158    -0.0015056149675054
 159    -0.0018977392675208
 160    -0.0024247655483235
 161    -0.0029075582343167
 162    -0.00017243611587656
 163    0.00015737855931576
 164    -3.2773036752828e-05
 165    0.00011399100809916
 166    1.0150159511293e-05
 167    0.00024101761214688
 168    -0.001602723297518
 169    0.0022618274771324
 170    0.0044110213809487
 171    0.0027861031221713
 172    0.00069349275016784
 173    -0.00096393766001061
 174    0.0050092933204546
 175    0.0011366284902399
 176    -0.0017191796749083
 177    0.0071092091592384
 178    0.0042870009805743
 179    -0.0018573964954548
 180    9.7696742165099e-05
 181    0.00023970307769927
 182    0.0001882876249743
 183    -0.00050496658413516
 184    -0.00015938363709411
 Sym= A
 Ene=               2
 Spin= Alpha
 Occup=    1.00000
   1    0.00062521206811948
   2    -0.0018618760709457
   3    0.0083171064507806
   4    -0.010865261853103
   5    -0.0014044828662367
   6    0.0020765640940568
   7    0.0045010060921445
   8    -0.004331305352654
   9    -0.006435227162596
  10    -0.014227134253544
  11     0.013762503176391
  12    0.0056231853009727
  13    0.0072285385367294
  14    -0.0063245232161686
  15      0.55456189185129
  16      0.35173257854164
  17     -0.31408524025434
  18      0.11805763521759
  19     -0.46978583342431
  20      0.14522017899489
  21     0.090450200368297
  22    -0.082171209955581
  23     0.032360114150615
  24     -0.12090913167359
  25    0.00022368154674559
  26    0.0017869629586059
  27    4.4264207775648e-05
  28    0.0015494739994516
  29    -0.0013904529552684
  30    -0.00022560972632959
  31    -0.0019114588262545
  32    -0.0045999386554636
  33     -0.01133719889861
  34    -0.0085744927839922
  35    -0.022978390981868
  36    -0.082235533993991
  37     0.070868999500402
  38    -0.025764404886385
  39    -0.080348752188096
  40     0.068981518822167
  41    0.00072546682804614
  42     -0.00202926044053
  43    -0.0011690888889111
  44     0.001074012957644
  45    0.0018742111536102
  46    -0.00094985478504155
  47      0.00281216053308
  48    -0.012759829174622
  49     0.013816292419381
  50    -0.004735858829027
  51     0.004178145746658
  52    -0.0025985239758756
  53    0.0010456350212208
  54    -0.013399481631573
  55    0.0082717464948854
  56    -0.0033534803964969
  57     0.012718283908336
  58    -0.015881327914202
  59     0.013393138433603
  60    -0.0017782651216396
  61    -3.3973912312505e-05
  62    0.00033580102231405
  63     0.003240569757389
  64    -0.0022818309088866
  65    -0.0021086156114231
  66    0.0032744986353547
  67    0.0015809696902789
  68    0.0019672022516497
  69    -0.0053300273632266
  70    -2.1249237504038e-05
  71    -0.00058861735020871
  72    6.7995178252939e-05
  73    1.7296959625785e-05
  74    0.00038069460589434
  75    0.00047480534025178
  76    -0.0007161963519844
  77    -0.0037058174409967
  78     0.024287031351264
  79    -0.030298066515975
  80     -0.03059541031809
  81    -0.0099453705828854
  82    -0.027668759011893
  83     0.030225339986581
  84    -0.016572172518376
  85    -0.047095020462054
  86     0.051855626487689
  87    -0.028237676758163
  88    -0.082637038707253
  89     0.092641988427694
  90    -0.0011782769726768
  91    -0.0017361827136469
  92    5.5227624382817e-05
  93    4.2203890909409e-05
  94    0.00036230306034748
  95    0.00042344038581619
  96    -0.0027441964121733
  97    0.0029251865077584
  98     0.005232298732797
  99    -0.00065292751402131
 100    -0.0058532108440507
 101      0.01072821723102
 102    -0.0011392903440069
 103    -0.010100589940828
 104     0.018279591939978
 105    -0.0025565379530408
 106    -0.015270708605215
 107     0.030487530873211
 108    -0.00081772370198706
 109    0.0004807066261166
 110    0.00035896979934169
 111    -0.00044269660178772
 112    -0.0015543154224757
 113     0.002900808463114
 114    -0.018888141845995
 115     0.022758040658763
 116     0.025984500504694
 117    0.00061287424334195
 118    -0.029118610464259
 119     0.022402914800582
 120    0.00076857406994552
 121     -0.04912790544487
 122     0.037466661697397
 123    0.00037584486855664
 124    -0.088145967966657
 125     0.065577689355772
 126    -0.0007350582884936
 127    0.00026766356987273
 128    0.00018508463212785
 129     -0.00113522280357
 130    0.0019241883279812
 131    -0.00015632636254737
 132    0.0010464387617691
 133    -0.0016065613091668
 134    -0.0021473397523729
 135    -0.00034620604521365
 136    0.0015276883129396
 137    0.00041679250130447
 138    -0.00058553309321009
 139    0.0024177893091499
 140    0.00077079404432295
 141    -0.0018264175228262
 142    0.0063955783865118
 143    0.0016738876108631
 144    -4.3401942698158e-05
 145    -0.00028400326361029
 146     0.000127884023512
 147    4.2363629161593e-05
 148    -0.00030282584482767
 149    0.00018639579158487
 150    -0.0012243208205093
 151    0.00098336322535312
 152    0.0071960770623953
 153    0.0025773048217796
 154    0.00053915895553623
 155    -0.00086032012491294
 156    0.0045082386560906
 157    0.00098128088227603
 158    -0.0016859500612893
 159    0.0083893431272512
 160    -0.00010636243673292
 161    0.0011717922745946
 162    0.00016411894204711
 163    0.00027683512086993
 164    -0.00013016961650016
 165    -0.00019836160069362
 166    -0.00015455196934806
 167    -0.00040093606583574
 168    0.0026861548627585
 169    -0.0046712021125611
 170    -0.0030015156048298
 171    -0.0033546362857034
 172    -0.0015228515193048
 173    -0.00095768239359068
 174    -0.0059439165614422
 175    -0.0027117994909632
 176    -0.0014374672845129
 177    -0.0095650955141413
 178    -0.0053484963019261
 179    -0.0045326706977447
 180    -0.00038035015817409
 181    0.00010009710075785
 182    -0.00011262328084219
 183    0.00051936344995735
 184    0.00063039105412235
 Sym= A
 Ene=               3
 Spin= Alpha
 Occup=    1.00000
   1    0.00069360021975164
   2    -0.0020998570847071
   3    0.0090661632705072
   4    -0.0096315248867628
   5    -0.0068272114265599
   6    0.0085988858916744
   7    -0.0079423307518227
   8    -0.0069220113622268
   9    -0.026747010271866
  10     0.024837743802816
  11     0.021794891565655
  12     0.025382811463348
  13    -0.026604711591268
  14    -0.024356634104732
  15     -0.14818941132459
  16      0.51397095662785
  17     -0.46318370239029
  18     -0.16940298134309
  19      0.47495674328753
  20    -0.041740060009698
  21      0.13312468558711
  22     -0.12215103407479
  23     -0.04126686639611
  24      0.12126467944323
  25    -0.0012620203965579
  26    0.0014768464090958
  27    -0.0010936761338845
  28    0.0010261523088945
  29    0.0011391843819058
  30    5.4749714865543e-05
  31    0.0012873203565238
  32    -0.0079942725504636
  33    -0.017696832710502
  34    -0.019370732491443
  35    -0.039115131646536
  36     0.056772336198822
  37     0.053882618605025
  38    -0.044810609260467
  39     0.056530022777578
  40     0.051793583730745
  41    -5.0285504175161e-05
  42    -0.0016593863803194
  43    0.00039917140824116
  44    0.00098245402536228
  45    -0.0011031729630529
  46     -0.00117549476441
  47    0.0034483951863146
  48    -0.015936073356622
  49     0.016597993688743
  50    0.0018231841401181
  51    0.0046103580821087
  52    0.0017674613345571
  53    0.00014437293522005
  54    -0.014872742720993
  55    -0.0056499559166838
  56    -0.00049487415295065
  57     0.014452664253752
  58     0.012219463696079
  59     0.010498358400593
  60    -0.0022890782281366
  61    -0.0015002707090518
  62    -0.00038141718164409
  63    0.0039785912472179
  64    0.0017528242396983
  65    -0.0017504821142818
  66    0.0018770481830916
  67    -0.00049319243699648
  68    0.0016250478165897
  69    0.0034797099805292
  70    0.0001052523874744
  71    -0.00042810035595847
  72    -0.00012824922996204
  73    -9.1004457287606e-05
  74    -0.00026134667829857
  75    0.00047145294871941
  76    0.00046395259293272
  77    -0.0018815217290569
  78     0.012409154427714
  79    -0.017379112388251
  80    -0.010248661081832
  81    -0.0067782261349499
  82    0.0045966641156595
  83     0.025326415642037
  84    -0.011437175110396
  85    0.0076299331377834
  86      0.04369197840075
  87    -0.019648013886736
  88      0.01196149388603
  89      0.07316665837433
  90    0.0016995357540795
  91    -0.00045303348743965
  92    0.0011473363621666
  93    0.0010043931071783
  94    0.0013557188273241
  95    0.0057564224834662
  96    -0.037775337129872
  97     0.050256610228301
  98     0.038231002354961
  99    -0.032667120489653
 100     0.028083506206224
 101     0.041937449371011
 102    -0.056188356493162
 103     0.048298135278991
 104     0.071729250957983
 105    -0.095121937521602
 106     0.081774450877633
 107      0.12304722095494
 108    0.0012619602233595
 109    -0.001511594149629
 110    0.00091006174998121
 111    0.00081098731135213
 112    -0.00045745317447998
 113    -0.0032963019930922
 114     0.021616312701728
 115    -0.029208535319035
 116    -0.020232263389251
 117    0.0029829078280748
 118     0.036032627503722
 119    -0.00066035278680507
 120    0.0054222692308892
 121     0.061313230947924
 122    -0.00099361905816651
 123    0.0080454131142507
 124      0.10620988432579
 125    -0.0029411989085017
 126    -0.00036888233585957
 127    0.0010899175215473
 128    0.0020704171898224
 129    -0.00011708296395396
 130    -0.0011393005566029
 131    -0.00028692753292801
 132    0.0018905025114663
 133    -0.001772135782881
 134    -0.008717319502671
 135    -0.00058086833403606
 136    0.00038744266018956
 137    0.0015865347011405
 138    -0.0011591798695624
 139    0.00056528565599742
 140    0.0024964071847685
 141    -0.0022110553747132
 142    0.0031907183332789
 143    0.0087615442645154
 144    8.7048715466134e-05
 145    -0.0006752653604271
 146    -1.1848248340436e-05
 147    0.00019957806591919
 148    -0.00026530814110502
 149    -0.00014564743335412
 150    0.00096471399905875
 151    -0.001779288602324
 152    0.00020880423720829
 153    -0.00094260426021434
 154    -0.00015685065520942
 155    -0.0010788671163593
 156    -0.0017346620283342
 157    -9.6040194092227e-06
 158    -0.0018685023821539
 159    -0.002216036560818
 160    -0.0024735381407617
 161    -0.0025250179031756
 162    -0.0002288461675336
 163    0.00032710862901894
 164    -0.00010290706397667
 165    0.00025119077898012
 166    -0.000145479788782
 167    9.5955686103096e-05
 168    -0.00065553247934737
 169    0.0010111794477506
 170    0.0024263194991214
 171    0.0017215642204181
 172    -6.4770928969362e-07
 173    -0.00099807854004081
 174    0.0031707383226274
 175    -0.00017559551802325
 176    -0.0017162279456848
 177    0.0038851536803664
 178     0.002726713119488
 179    -0.0023246393492498
 180    -6.7347633904058e-05
 181    0.00021002931169299
 182    0.00014706561590721
 183    -0.00042209476476902