[Molden Format]
made by pyscf v[2.1.1]
[Atoms] (AU)
Cr   1   24     1.56143912275337    -2.46507591990239    -1.82404491365355
Cr   2   24    -1.56139565905251     2.46513072196000     1.82399011159594
O   3   8     0.00002078698737     0.00002834589187    -0.00002645616574
N   4   7     5.12832174930954    -1.10581670549011    -0.60767356069801
H   5   1     6.65216855026694    -1.66292686427314    -1.66487895135981
H   6   1     5.63710405218294    -1.59213394419468     1.18765885421890
H   7   1     5.20084187906585     0.81566059741989    -0.65509245834172
N   8   7     1.71230729763415    -0.02251608677419    -4.99594076510539
H   9   1     0.29795878723855     1.27247165241550    -4.90823668593820
H   10   1     1.50271021425414    -0.85583806455427    -6.73026148236459
H   11   1     3.34039895052705     0.99863710888315    -5.18656310846864
N   12   7     1.41057094787259    -4.90763575303059     1.34785282752440
H   13   1     1.64193389675534    -6.79355407945465     0.97314659318890
H   14   1    -0.29048681014202    -4.81040367474334     2.24006056107205
H   15   1     2.72468082571676    -4.56691435331926     2.71738081369757
N   16   7    -2.00544350380280    -3.82433513431467    -3.04041437688297
H   17   1    -2.87205678671934    -5.05516478184926    -1.83221042023780
H   18   1    -2.03637832046193    -4.76397121413665    -4.73247136936628
H   19   1    -3.24475802163669    -2.37551046050250    -3.28123540501917
N   20   7     3.37923471211299    -5.33493873459111    -3.94755661599306
H   21   1     4.17102617885350    -4.76109883042731    -5.61685374703210
H   22   1     2.26176595533881    -6.82326057413281    -4.47610923358166
H   23   1     4.85383336053810    -6.19899521806112    -3.03922195969837
N   24   7    -5.12827828560868     1.10587339727385     0.60762064836653
H   25   1    -5.15408816501799    -0.81544705836782     0.54662784797006
H   26   1    -5.69743166898356     1.68113626520945    -1.14337690194197
H   27   1    -6.63528195761783     1.56841410187914     1.73267665553083
N   28   7    -1.71226383393328     0.02257088883181     4.99588785277390
H   29   1    -1.62991523860311     0.86667375415253     6.73575491620870
H   30   1    -0.22416876152653    -1.19157625647512     4.98456461383551
H   31   1    -3.28782110056328    -1.08746368536834     5.11339858210385
N   32   7     2.00548696750367     3.82438993637228     3.04035957482536
H   33   1     2.05186651577887     4.68410571893416     4.77402266739321
H   34   1     2.83712330958063     5.12208376337235     1.87805706574587
H   35   1     3.26582090902109     2.38241174030942     3.19051154350492
N   36   7    -1.41052748417173     4.90769055508820    -1.34790762958202
H   37   1    -1.75003190025884     6.78104976168840    -0.99229329828299
H   38   1    -2.65834387984003     4.49309409198925    -2.75785496783350
H   39   1     0.32278033988471     4.89894112313146    -2.18344058692784
N   40   7    -3.37919124841212     5.33499353664873     3.94750181393545
H   41   1    -2.26357064378777     6.83195331430581     4.45515784003860
H   42   1    -4.15358022727151     4.76963661305810     5.62761006813313
H   43   1    -4.86681766873998     6.18449345978121     3.04686590187224
[GTO]
1 0
 s    6 1.00
          51528.086349  0.0017695545768669
          7737.2103487   0.013556436258096
           1760.374847   0.067162645785071
          496.87706544    0.23295905918518
          161.46520598    0.47040576982722
          55.466352268    0.35733072606876
 s    3 1.00
          107.54732999   -0.10605255446629
          12.408671897    0.62543981484169
          5.0423628826    0.44878820793655
 s    3 1.00
          8.5461640165   -0.21819012081133
          1.3900441221    0.70422525667731
         0.56066602876    0.42488555412558
 s    1 1.00
        0.071483705972                   1
 s    1 1.00
        0.028250687604                   1
 p    5 1.00
          640.48536096  0.0093555063746755
          150.69711194   0.068993338492216
          47.503755296     0.2634118959318
          16.934120165    0.51034501651775
           6.240968059    0.33195512953954
 p    3 1.00
          3.0885463206    0.32917682676976
          1.1791047769    0.55491385190365
         0.43369774432    0.23818412855984
 p    1 1.00
              0.120675                   1
 d    4 1.00
          27.559479426   0.036950140313562
          7.4687020327    0.18821519783039
          2.4345903574    0.44641244239929
         0.78244754808     0.5681617303244
 d    1 1.00
         0.21995774311                   1
 f    1 1.00
                 1.147                   1

2 0
 s    6 1.00
          51528.086349  0.0017695545768669
          7737.2103487   0.013556436258096
           1760.374847   0.067162645785071
          496.87706544    0.23295905918518
          161.46520598    0.47040576982722
          55.466352268    0.35733072606876
 s    3 1.00
          107.54732999   -0.10605255446629
          12.408671897    0.62543981484169
          5.0423628826    0.44878820793655
 s    3 1.00
          8.5461640165   -0.21819012081133
          1.3900441221    0.70422525667731
         0.56066602876    0.42488555412558
 s    1 1.00
        0.071483705972                   1
 s    1 1.00
        0.028250687604                   1
 p    5 1.00
          640.48536096  0.0093555063746755
          150.69711194   0.068993338492216
          47.503755296     0.2634118959318
          16.934120165    0.51034501651775
           6.240968059    0.33195512953954
 p    3 1.00
          3.0885463206    0.32917682676976
          1.1791047769    0.55491385190365
         0.43369774432    0.23818412855984
 p    1 1.00
              0.120675                   1
 d    4 1.00
          27.559479426   0.036950140313562
          7.4687020327    0.18821519783039
          2.4345903574    0.44641244239929
         0.78244754808     0.5681617303244
 d    1 1.00
         0.21995774311                   1
 f    1 1.00
                 1.147                   1

3 0
 s    5 1.00
          2266.1767785  -0.0053893503921743
          340.87010191   -0.04023472138896
          77.363135167   -0.18008184205526
           21.47964494   -0.46828857657651
          6.6589433124   -0.44692617160187
 s    1 1.00
         0.80975975668                   1
 s    1 1.00
         0.25530772234                   1
 p    3 1.00
          17.721504317   0.062630248763161
           3.863550544    0.33331138482352
          1.0480920883    0.74148638308122
 p    1 1.00
         0.27641544411                   1
 d    1 1.00
                   1.2                   1

4 0
 s    5 1.00
          1712.8415853  -0.0054477995804909
          257.64812677  -0.040627174632423
          58.458245853   -0.18111962250584
          16.198367905   -0.46843975563173
          5.0052600809   -0.44616846289231
 s    1 1.00
         0.58731856571                   1
 s    1 1.00
         0.18764592253                   1
 p    3 1.00
          13.571470233  -0.058848116969522
          2.9257372874   -0.32024624762471
         0.79927750754   -0.75328226520436
 p    1 1.00
         0.21954348034                   1
 d    1 1.00
                     1                   1

5 0
 s    3 1.00
             13.010701   0.033485484812989
             1.9622572    0.23472187088125
            0.44453796    0.81377028525955
 s    1 1.00
            0.12194962                   1
 p    1 1.00
                   0.8                   1

6 0
 s    3 1.00
             13.010701   0.033485484812989
             1.9622572    0.23472187088125
            0.44453796    0.81377028525955
 s    1 1.00
            0.12194962                   1
 p    1 1.00
                   0.8                   1

7 0
 s    3 1.00
             13.010701   0.033485484812989
             1.9622572    0.23472187088125
            0.44453796    0.81377028525955
 s    1 1.00
            0.12194962                   1
 p    1 1.00
                   0.8                   1

8 0
 s    5 1.00
          1712.8415853  -0.0054477995804909
          257.64812677  -0.040627174632423
          58.458245853   -0.18111962250584
          16.198367905   -0.46843975563173
          5.0052600809   -0.44616846289231
 s    1 1.00
         0.58731856571                   1
 s    1 1.00
         0.18764592253                   1
 p    3 1.00
          13.571470233  -0.058848116969522
          2.9257372874   -0.32024624762471
         0.79927750754   -0.75328226520436
 p    1 1.00
         0.21954348034                   1
 d    1 1.00
                     1                   1

9 0
 s    3 1.00
             13.010701   0.033485484812989
             1.9622572    0.23472187088125
            0.44453796    0.81377028525955
 s    1 1.00
            0.12194962                   1
 p    1 1.00
                   0.8                   1

10 0
 s    3 1.00
             13.010701   0.033485484812989
             1.9622572    0.23472187088125
            0.44453796    0.81377028525955
 s    1 1.00
            0.12194962                   1
 p    1 1.00
                   0.8                   1

11 0
 s    3 1.00
             13.010701   0.033485484812989
             1.9622572    0.23472187088125
            0.44453796    0.81377028525955
 s    1 1.00
            0.12194962                   1
 p    1 1.00
                   0.8                   1

12 0
 s    5 1.00
          1712.8415853  -0.0054477995804909
          257.64812677  -0.040627174632423
          58.458245853   -0.18111962250584
          16.198367905   -0.46843975563173
          5.0052600809   -0.44616846289231
 s    1 1.00
         0.58731856571                   1
 s    1 1.00
         0.18764592253                   1
 p    3 1.00
          13.571470233  -0.058848116969522
          2.9257372874   -0.32024624762471
         0.79927750754   -0.75328226520436
 p    1 1.00
         0.21954348034                   1
 d    1 1.00
                     1                   1

13 0
 s    3 1.00
             13.010701   0.033485484812989
             1.9622572    0.23472187088125
            0.44453796    0.81377028525955
 s    1 1.00
            0.12194962                   1
 p    1 1.00
                   0.8                   1

14 0
 s    3 1.00
             13.010701   0.033485484812989
             1.9622572    0.23472187088125
            0.44453796    0.81377028525955
 s    1 1.00
            0.12194962                   1
 p    1 1.00
                   0.8                   1

15 0
 s    3 1.00
             13.010701   0.033485484812989
             1.9622572    0.23472187088125
            0.44453796    0.81377028525955
 s    1 1.00
            0.12194962                   1
 p    1 1.00
                   0.8                   1

16 0
 s    5 1.00
          1712.8415853  -0.0054477995804909
          257.64812677  -0.040627174632423
          58.458245853   -0.18111962250584
          16.198367905   -0.46843975563173
          5.0052600809   -0.44616846289231
 s    1 1.00
         0.58731856571                   1
 s    1 1.00
         0.18764592253                   1
 p    3 1.00
          13.571470233  -0.058848116969522
          2.9257372874   -0.32024624762471
         0.79927750754   -0.75328226520436
 p    1 1.00
         0.21954348034                   1
 d    1 1.00
                     1                   1

17 0
 s    3 1.00
             13.010701   0.033485484812989
             1.9622572    0.23472187088125
            0.44453796    0.81377028525955
 s    1 1.00
            0.12194962                   1
 p    1 1.00
                   0.8                   1

18 0
 s    3 1.00
             13.010701   0.033485484812989
             1.9622572    0.23472187088125
            0.44453796    0.81377028525955
 s    1 1.00
            0.12194962                   1
 p    1 1.00
                   0.8                   1

19 0
 s    3 1.00
             13.010701   0.033485484812989
             1.9622572    0.23472187088125
            0.44453796    0.81377028525955
 s    1 1.00
            0.12194962                   1
 p    1 1.00
                   0.8                   1

20 0
 s    5 1.00
          1712.8415853  -0.0054477995804909
          257.64812677  -0.040627174632423
          58.458245853   -0.18111962250584
          16.198367905   -0.46843975563173
          5.0052600809   -0.44616846289231
 s    1 1.00
         0.58731856571                   1
 s    1 1.00
         0.18764592253                   1
 p    3 1.00
          13.571470233  -0.058848116969522
          2.9257372874   -0.32024624762471
         0.79927750754   -0.75328226520436
 p    1 1.00
         0.21954348034                   1
 d    1 1.00
                     1                   1

21 0
 s    3 1.00
             13.010701   0.033485484812989
             1.9622572    0.23472187088125
            0.44453796    0.81377028525955
 s    1 1.00
            0.12194962                   1
 p    1 1.00
                   0.8                   1

22 0
 s    3 1.00
             13.010701   0.033485484812989
             1.9622572    0.23472187088125
            0.44453796    0.81377028525955
 s    1 1.00
            0.12194962                   1
 p    1 1.00
                   0.8                   1

23 0
 s    3 1.00
             13.010701   0.033485484812989
             1.9622572    0.23472187088125
            0.44453796    0.81377028525955
 s    1 1.00
            0.12194962                   1
 p    1 1.00
                   0.8                   1

24 0
 s    5 1.00
          1712.8415853  -0.0054477995804909
          257.64812677  -0.040627174632423
          58.458245853   -0.18111962250584
          16.198367905   -0.46843975563173
          5.0052600809   -0.44616846289231
 s    1 1.00
         0.58731856571                   1
 s    1 1.00
         0.18764592253                   1
 p    3 1.00
          13.571470233  -0.058848116969522
          2.9257372874   -0.32024624762471
         0.79927750754   -0.75328226520436
 p    1 1.00
         0.21954348034                   1
 d    1 1.00
                     1                   1

25 0
 s    3 1.00
             13.010701   0.033485484812989
             1.9622572    0.23472187088125
            0.44453796    0.81377028525955
 s    1 1.00
            0.12194962                   1
 p    1 1.00
                   0.8                   1

26 0
 s    3 1.00
             13.010701   0.033485484812989
             1.9622572    0.23472187088125
            0.44453796    0.81377028525955
 s    1 1.00
            0.12194962                   1
 p    1 1.00
                   0.8                   1

27 0
 s    3 1.00
             13.010701   0.033485484812989
             1.9622572    0.23472187088125
            0.44453796    0.81377028525955
 s    1 1.00
            0.12194962                   1
 p    1 1.00
                   0.8                   1

28 0
 s    5 1.00
          1712.8415853  -0.0054477995804909
          257.64812677  -0.040627174632423
          58.458245853   -0.18111962250584
          16.198367905   -0.46843975563173
          5.0052600809   -0.44616846289231
 s    1 1.00
         0.58731856571                   1
 s    1 1.00
         0.18764592253                   1
 p    3 1.00
          13.571470233  -0.058848116969522
          2.9257372874   -0.32024624762471
         0.79927750754   -0.75328226520436
 p    1 1.00
         0.21954348034                   1
 d    1 1.00
                     1                   1

29 0
 s    3 1.00
             13.010701   0.033485484812989
             1.9622572    0.23472187088125
            0.44453796    0.81377028525955
 s    1 1.00
            0.12194962                   1
 p    1 1.00
                   0.8                   1

30 0
 s    3 1.00
             13.010701   0.033485484812989
             1.9622572    0.23472187088125
            0.44453796    0.81377028525955
 s    1 1.00
            0.12194962                   1
 p    1 1.00
                   0.8                   1

31 0
 s    3 1.00
             13.010701   0.033485484812989
             1.9622572    0.23472187088125
            0.44453796    0.81377028525955
 s    1 1.00
            0.12194962                   1
 p    1 1.00
                   0.8                   1

32 0
 s    5 1.00
          1712.8415853  -0.0054477995804909
          257.64812677  -0.040627174632423
          58.458245853   -0.18111962250584
          16.198367905   -0.46843975563173
          5.0052600809   -0.44616846289231
 s    1 1.00
         0.58731856571                   1
 s    1 1.00
         0.18764592253                   1
 p    3 1.00
          13.571470233  -0.058848116969522
          2.9257372874   -0.32024624762471
         0.79927750754   -0.75328226520436
 p    1 1.00
         0.21954348034                   1
 d    1 1.00
                     1                   1

33 0
 s    3 1.00
             13.010701   0.033485484812989
             1.9622572    0.23472187088125
            0.44453796    0.81377028525955
 s    1 1.00
            0.12194962                   1
 p    1 1.00
                   0.8                   1

34 0
 s    3 1.00
             13.010701   0.033485484812989
             1.9622572    0.23472187088125
            0.44453796    0.81377028525955
 s    1 1.00
            0.12194962                   1
 p    1 1.00
                   0.8                   1

35 0
 s    3 1.00
             13.010701   0.033485484812989
             1.9622572    0.23472187088125
            0.44453796    0.81377028525955
 s    1 1.00
            0.12194962                   1
 p    1 1.00
                   0.8                   1

36 0
 s    5 1.00
          1712.8415853  -0.0054477995804909
          257.64812677  -0.040627174632423
          58.458245853   -0.18111962250584
          16.198367905   -0.46843975563173
          5.0052600809   -0.44616846289231
 s    1 1.00
         0.58731856571                   1
 s    1 1.00
         0.18764592253                   1
 p    3 1.00
          13.571470233  -0.058848116969522
          2.9257372874   -0.32024624762471
         0.79927750754   -0.75328226520436
 p    1 1.00
         0.21954348034                   1
 d    1 1.00
                     1                   1

37 0
 s    3 1.00
             13.010701   0.033485484812989
             1.9622572    0.23472187088125
            0.44453796    0.81377028525955
 s    1 1.00
            0.12194962                   1
 p    1 1.00
                   0.8                   1

38 0
 s    3 1.00
             13.010701   0.033485484812989
             1.9622572    0.23472187088125
            0.44453796    0.81377028525955
 s    1 1.00
            0.12194962                   1
 p    1 1.00
                   0.8                   1

39 0
 s    3 1.00
             13.010701   0.033485484812989
             1.9622572    0.23472187088125
            0.44453796    0.81377028525955
 s    1 1.00
            0.12194962                   1
 p    1 1.00
                   0.8                   1

40 0
 s    5 1.00
          1712.8415853  -0.0054477995804909
          257.64812677  -0.040627174632423
          58.458245853   -0.18111962250584
          16.198367905   -0.46843975563173
          5.0052600809   -0.44616846289231
 s    1 1.00
         0.58731856571                   1
 s    1 1.00
         0.18764592253                   1
 p    3 1.00
          13.571470233  -0.058848116969522
          2.9257372874   -0.32024624762471
         0.79927750754   -0.75328226520436
 p    1 1.00
         0.21954348034                   1
 d    1 1.00
                     1                   1

41 0
 s    3 1.00
             13.010701   0.033485484812989
             1.9622572    0.23472187088125
            0.44453796    0.81377028525955
 s    1 1.00
            0.12194962                   1
 p    1 1.00
                   0.8                   1

42 0
 s    3 1.00
             13.010701   0.033485484812989
             1.9622572    0.23472187088125
            0.44453796    0.81377028525955
 s    1 1.00
            0.12194962                   1
 p    1 1.00
                   0.8                   1

43 0
 s    3 1.00
             13.010701   0.033485484812989
             1.9622572    0.23472187088125
            0.44453796    0.81377028525955
 s    1 1.00
            0.12194962                   1
 p    1 1.00
                   0.8                   1

[5d]
[7f]
[9g]

[MO]
 Sym= A
 Ene=               0
 Spin= Alpha
 Occup=    1.00000
   1     0.012326778940134
   2    -0.026716882426026
   3      0.22804067413955
   4    -0.0060044746028698
   5    -0.010179132505266
   6     0.027234709833251
   7    -0.043968738859845
   8    -0.031871150616849
   9     -0.14800047742562
  10      0.23787606824471
  11      0.17308955298961
  12    0.0019184621165116
  13    -0.0028122928958436
  14    -0.0035012390692941
  15     0.050131317528998
  16     -0.01702548500721
  17    -0.081989775330928
  18    -0.044620103759742
  19    -0.0099562573582616
  20     0.036657062466785
  21    -0.012182473980443
  22    -0.061099315510411
  23    -0.032271910045695
  24    -0.0069888561054001
  25    4.3872107488257e-05
  26    0.00029220139163819
  27    4.553205437547e-08
  28    0.0001232827592493
  29    0.00053302447641942
  30    -0.00063872909656324
  31    0.00013184506976167
  32    -0.012353420308594
  33      0.02667671224137
  34     -0.22865627837664
  35    0.0067875318322419
  36     0.010026591087227
  37     0.027093160313914
  38     -0.04374805918972
  39    -0.031705689507503
  40     -0.14729692553871
  41      0.23677470103977
  42      0.17226606207524
  43    0.0021912589492148
  44    -0.0032316370550235
  45    -0.0037075590946418
  46    -0.049461142932481
  47      0.01487555633167
  48     0.083216402912416
  49     0.042778068522009
  50    0.0072784942995559
  51    -0.035767483176346
  52     0.011270135216806
  53     0.060357198767549
  54     0.031121433293112
  55    0.0060213478397977
  56    9.714017385956e-05
  57    0.00029704440147018
  58    -2.2138923454182e-05
  59    0.00015997338873055
  60    0.00060785642365563
  61    -0.00068554766090418
  62    0.00012454203657662
  63    6.7624914383614e-05
  64    0.0047577501376034
  65    0.0036884129353696
  66    0.0085136462067948
  67     -0.01323282173268
  68    -0.0099819313420982
  69    0.0098400601861492
  70    -0.015229141594767
  71     -0.01133296421836
  72    -8.9504123708177e-06
  73    -9.8801144661582e-05
  74    0.00013979139079488
  75    -6.9457796919935e-05
  76    -0.00013427223297882
  77    -0.020314022594117
  78    -0.075010951998184
  79    -0.046194262615058
  80    -0.049234358963838
  81    -0.053967111861717
  82    -0.039913498287266
  83     0.032426773815737
  84     0.036957372305729
  85     0.026828769894591
  86    -0.00022986100925455
  87    0.00094188096949917
  88    -0.00071663853144417
  89    -0.0010640706731777
  90    0.00058445839202348
  91    -0.024420978170764
  92    0.0025670696147813
  93    0.0044760455866632
  94    0.0012486540019043
  95    1.0601613520618e-06
  96    0.0039665155496395
  97    0.0085162414875841
  98    0.0018152387289374
  99    0.0012700227275457
 100    0.00086168055256308
 101     0.017507005076936
 102     0.010928210948287
 103    0.0017078141961289
 104    -0.00038544936333097
 105    0.00063639831953866
 106     0.039968667417221
 107     0.078455626899239
 108     0.083239442311614
 109     0.020940945839685
 110     0.077094044480486
 111     -0.14889855362968
 112    -0.010627857890742
 113      -0.0612640465647
 114        0.103081828129
 115    -0.00083097778339119
 116    -0.00021682735871763
 117    -0.001092573849937
 118    -5.900514131823e-05
 119    -0.0010792099137358
 120    0.0066033272689505
 121    -0.0078173186354717
 122    -0.00038064413993607
 123    -0.0028998813526219
 124    0.0048288664896163
 125     -0.04758073231107
 126    -0.013669089341203
 127    -0.0013271912557229
 128    -0.0049738267031674
 129    -0.0013882494984471
 130    -0.027593369109762
 131      -0.0105759200204
 132     0.002611014053932
 133    -0.00037800633592723
 134    0.0044181847309593
 135     0.038346990877037
 136     0.073956400718487
 137     0.079999212010676
 138    0.0067912096306287
 139     -0.12141456414832
 140      0.11145323594636
 141    -0.0006631742556128
 142     0.082437584834537
 143    -0.083337169552956
 144    0.00061981121597474
 145    -0.00039972114993605
 146    -0.00073235421407516
 147    0.0011297213518652
 148    0.0001743083039502
 149     -0.04859642418345
 150    -0.013180829275617
 151    0.00059844073169361
 152    -0.0028726485357477
 153    -0.0045241135035724
 154    -0.0025070676262347
 155    -0.0080021069145745
 156    -0.00085738433320728
 157    0.0040720349987122
 158    -0.0034702374618994
 159    -0.020430258913192
 160      -0.0101778619555
 161    0.0018273129913436
 162    0.0045825583052458
 163    -0.001525790768798
 164     -0.02108606588221
 165    -0.077057331585965
 166    -0.049180688035849
 167     0.084362368370661
 168    -0.0024135291940548
 169    0.0057886298686846
 170    -0.058013590067597
 171    0.0020507727912817
 172    -0.0035830724364227
 173    -0.00093520278131412
 174    0.00023326584545302
 175    -0.0010946979878126
 176    4.2066579979548e-05
 177    -0.00049025783236355
 178    0.00040008465002265
 179    0.0071888392476761
 180    -0.0025695624649079
 181    -0.00056613960770928
 182    -0.00022386859959344
 183    -0.021962998727317
 184    0.0028672814832289
 185    -0.0033800401101866
 186    -0.0013476437058173
 187    -0.0026538491969687
 188     0.018034987745795
 189     0.011884963267622
 190    -0.00096263547825193
 191    -0.0015278344277163
 192    -0.00052869211130565
 193    -0.025266734656384
 194    -0.099027443163665
 195    -0.066083072677561
 196    -0.028332252382531
 197     0.044964699145335
 198     0.033034622104102
 199     0.023446599460419
 200    -0.039234650561453
 201     -0.02745878528128
 202    0.00022010994874312
 203    3.8049458119188e-05
 204    -0.00053337753114167
 205    -0.00013617627330516
 206    9.9562672743994e-05
 207    -0.010954821130793
 208    0.0046714351447494
 209    0.0014598221820812
 210    -0.00023298372988582
 211    -0.0028243697602989
 212    -0.013032301377805
 213    0.0037175843717632
 214    -6.1104742978741e-05
 215    -0.0031712271613669
 216    -0.0014410215753041
 217    -0.012715587596136
 218    0.0042059305309485
 219    0.0022484547270983
 220    -0.0025515037462952
 221    0.00028720170338532
 222     0.019325569289614
 223     0.072022474069735
 224     0.043958605991341
 225     -0.04622207609925
 226     -0.05296774744025
 227    -0.038757655061193
 228     0.030105084746543
 229     0.036353423970032
 230     0.025955770359822
 231    0.00038786494047865
 232    -0.0009419089663015
 233    0.00055492427657821
 234    0.0011185704597444
 235    -0.0004829266851443
 236    -0.018368493501789
 237    -0.010897743081018
 238    0.0016572252618582
 239    -0.00051766575760885
 240    0.00050835727685794
 241    -0.0023192508273716
 242    -0.0079254412162569
 243     0.001780272144928
 244    0.0012332806309994
 245    0.0009833614886524
 246     0.023788172270555
 247    -0.0024582168682793
 248    0.0042776052622856
 249    0.0013368913465905
 250    -0.00010434644768911
 251    -0.039125203463143
 252    -0.076915924396968
 253    -0.081378490784161
 254     0.020653077545268
 255     0.075030410487447
 256     -0.14570110008349
 257    -0.010488624670046
 258    -0.059722573211481
 259         0.10104974261
 260    0.00087665390521378
 261    8.4394471790334e-05
 262    0.0011895937839052
 263    -8.2255741101382e-05
 264    0.00090673618028336
 265     0.047713523746116
 266     0.013634515142709
 267    -0.0009010220832285
 268    -0.004936719871917
 269    -0.0015253547070162
 270    -0.0054647404825419
 271    0.0073150284460706
 272    -0.00044528185365215
 273    -0.0027500940933575
 274    0.0047364644390374
 275     0.024757150267111
 276     0.010096108825514
 277    0.0022176354941532
 278    -0.00035332079699696
 279    0.0045164161529784
 280     0.020131672922978
 281     0.074159334779964
 282     0.046983045102479
 283     0.081382370690972
 284    -0.0034887024425664
 285     0.004808314715357
 286     -0.05577246675808
 287    0.0029500843135987
 288    -0.0028158251910042
 289    0.0010087599108702
 290    -0.0002055795076852
 291    0.00094194485668781
 292    -4.1038938404829e-05
 293    0.0005658455474735
 294     0.021291956831239
 295    -0.002696762743085
 296    -0.0032651184090308
 297    -0.0011868503189877
 298    -0.0026077223398935
 299    0.0008489167763306
 300    -0.0067430014835585
 301    -0.0025575385281235
 302    -0.00061267526906884
 303    -0.00014132327002898
 304    -0.018460080120041
 305    -0.011882657635145
 306    -0.00083056585803389
 307    -0.001536733676615
 308    -0.00056199842532904
 309    -0.037511868269423
 310     -0.07241725332131
 311    -0.078276504680018
 312    0.0069991671994551
 313     -0.11882288799511
 314      0.10871411941537
 315    -0.0010484488148767
 316     0.080766506129575
 317    -0.081349890494635
 318    -0.00064132758046668
 319    0.00027533515583471
 320    0.00072020385953785
 321    -0.001108215574568
 322    -0.00034222850885839
 323     0.048171337576049
 324     0.012956602255254
 325    0.00094218161671057
 326    -0.0028532075530298
 327    -0.0043647007482261
 328     0.017985142095009
 329    0.0098793105291962
 330    0.0015192674935058
 331    0.0045538216123631
 332    -0.0016144900853638
 333    0.0037065529482768
 334    0.0078731916270191
 335    -0.0010101147672193
 336    0.0039441075821546
 337    -0.0033292528768037
 338     0.024707176489544
 339     0.097127290788953
 340     0.064502276534496
 341    -0.027652427004484
 342     0.043878564579918
 343     0.032239734963694
 344     0.022873371322546
 345     -0.03823304693285