[Molden Format]
made by pyscf v[2.1.1]
[Atoms] (AU)
Cr   1   24     1.56143912275337    -2.46507591990239    -1.82404491365355
Cr   2   24    -1.56139565905251     2.46513072196000     1.82399011159594
O   3   8     0.00002078698737     0.00002834589187    -0.00002645616574
N   4   7     5.12832174930954    -1.10581670549011    -0.60767356069801
H   5   1     6.65216855026694    -1.66292686427314    -1.66487895135981
H   6   1     5.63710405218294    -1.59213394419468     1.18765885421890
H   7   1     5.20084187906585     0.81566059741989    -0.65509245834172
N   8   7     1.71230729763415    -0.02251608677419    -4.99594076510539
H   9   1     0.29795878723855     1.27247165241550    -4.90823668593820
H   10   1     1.50271021425414    -0.85583806455427    -6.73026148236459
H   11   1     3.34039895052705     0.99863710888315    -5.18656310846864
N   12   7     1.41057094787259    -4.90763575303059     1.34785282752440
H   13   1     1.64193389675534    -6.79355407945465     0.97314659318890
H   14   1    -0.29048681014202    -4.81040367474334     2.24006056107205
H   15   1     2.72468082571676    -4.56691435331926     2.71738081369757
N   16   7    -2.00544350380280    -3.82433513431467    -3.04041437688297
H   17   1    -2.87205678671934    -5.05516478184926    -1.83221042023780
H   18   1    -2.03637832046193    -4.76397121413665    -4.73247136936628
H   19   1    -3.24475802163669    -2.37551046050250    -3.28123540501917
N   20   7     3.37923471211299    -5.33493873459111    -3.94755661599306
H   21   1     4.17102617885350    -4.76109883042731    -5.61685374703210
H   22   1     2.26176595533881    -6.82326057413281    -4.47610923358166
H   23   1     4.85383336053810    -6.19899521806112    -3.03922195969837
N   24   7    -5.12827828560868     1.10587339727385     0.60762064836653
H   25   1    -5.15408816501799    -0.81544705836782     0.54662784797006
H   26   1    -5.69743166898356     1.68113626520945    -1.14337690194197
H   27   1    -6.63528195761783     1.56841410187914     1.73267665553083
N   28   7    -1.71226383393328     0.02257088883181     4.99588785277390
H   29   1    -1.62991523860311     0.86667375415253     6.73575491620870
H   30   1    -0.22416876152653    -1.19157625647512     4.98456461383551
H   31   1    -3.28782110056328    -1.08746368536834     5.11339858210385
N   32   7     2.00548696750367     3.82438993637228     3.04035957482536
H   33   1     2.05186651577887     4.68410571893416     4.77402266739321
H   34   1     2.83712330958063     5.12208376337235     1.87805706574587
H   35   1     3.26582090902109     2.38241174030942     3.19051154350492
N   36   7    -1.41052748417173     4.90769055508820    -1.34790762958202
H   37   1    -1.75003190025884     6.78104976168840    -0.99229329828299
H   38   1    -2.65834387984003     4.49309409198925    -2.75785496783350
H   39   1     0.32278033988471     4.89894112313146    -2.18344058692784
N   40   7    -3.37919124841212     5.33499353664873     3.94750181393545
H   41   1    -2.26357064378777     6.83195331430581     4.45515784003860
H   42   1    -4.15358022727151     4.76963661305810     5.62761006813313
H   43   1    -4.86681766873998     6.18449345978121     3.04686590187224
[GTO]
1 0
 s    6 1.00
          51528.086349  0.0017695545768669
          7737.2103487   0.013556436258096
           1760.374847   0.067162645785071
          496.87706544    0.23295905918518
          161.46520598    0.47040576982722
          55.466352268    0.35733072606876
 s    3 1.00
          107.54732999   -0.10605255446629
          12.408671897    0.62543981484169
          5.0423628826    0.44878820793655
 s    3 1.00
          8.5461640165   -0.21819012081133
          1.3900441221    0.70422525667731
         0.56066602876    0.42488555412558
 s    1 1.00
        0.071483705972                   1
 s    1 1.00
        0.028250687604                   1
 p    5 1.00
          640.48536096  0.0093555063746755
          150.69711194   0.068993338492216
          47.503755296     0.2634118959318
          16.934120165    0.51034501651775
           6.240968059    0.33195512953954
 p    3 1.00
          3.0885463206    0.32917682676976
          1.1791047769    0.55491385190365
         0.43369774432    0.23818412855984
 p    1 1.00
              0.120675                   1
 d    4 1.00
          27.559479426   0.036950140313562
          7.4687020327    0.18821519783039
          2.4345903574    0.44641244239929
         0.78244754808     0.5681617303244
 d    1 1.00
         0.21995774311                   1
 f    1 1.00
                 1.147                   1

2 0
 s    6 1.00
          51528.086349  0.0017695545768669
          7737.2103487   0.013556436258096
           1760.374847   0.067162645785071
          496.87706544    0.23295905918518
          161.46520598    0.47040576982722
          55.466352268    0.35733072606876
 s    3 1.00
          107.54732999   -0.10605255446629
          12.408671897    0.62543981484169
          5.0423628826    0.44878820793655
 s    3 1.00
          8.5461640165   -0.21819012081133
          1.3900441221    0.70422525667731
         0.56066602876    0.42488555412558
 s    1 1.00
        0.071483705972                   1
 s    1 1.00
        0.028250687604                   1
 p    5 1.00
          640.48536096  0.0093555063746755
          150.69711194   0.068993338492216
          47.503755296     0.2634118959318
          16.934120165    0.51034501651775
           6.240968059    0.33195512953954
 p    3 1.00
          3.0885463206    0.32917682676976
          1.1791047769    0.55491385190365
         0.43369774432    0.23818412855984
 p    1 1.00
              0.120675                   1
 d    4 1.00
          27.559479426   0.036950140313562
          7.4687020327    0.18821519783039
          2.4345903574    0.44641244239929
         0.78244754808     0.5681617303244
 d    1 1.00
         0.21995774311                   1
 f    1 1.00
                 1.147                   1

3 0
 s    5 1.00
          2266.1767785  -0.0053893503921743
          340.87010191   -0.04023472138896
          77.363135167   -0.18008184205526
           21.47964494   -0.46828857657651
          6.6589433124   -0.44692617160187
 s    1 1.00
         0.80975975668                   1
 s    1 1.00
         0.25530772234                   1
 p    3 1.00
          17.721504317   0.062630248763161
           3.863550544    0.33331138482352
          1.0480920883    0.74148638308122
 p    1 1.00
         0.27641544411                   1
 d    1 1.00
                   1.2                   1

4 0
 s    5 1.00
          1712.8415853  -0.0054477995804909
          257.64812677  -0.040627174632423
          58.458245853   -0.18111962250584
          16.198367905   -0.46843975563173
          5.0052600809   -0.44616846289231
 s    1 1.00
         0.58731856571                   1
 s    1 1.00
         0.18764592253                   1
 p    3 1.00
          13.571470233  -0.058848116969522
          2.9257372874   -0.32024624762471
         0.79927750754   -0.75328226520436
 p    1 1.00
         0.21954348034                   1
 d    1 1.00
                     1                   1

5 0
 s    3 1.00
             13.010701   0.033485484812989
             1.9622572    0.23472187088125
            0.44453796    0.81377028525955
 s    1 1.00
            0.12194962                   1
 p    1 1.00
                   0.8                   1

6 0
 s    3 1.00
             13.010701   0.033485484812989
             1.9622572    0.23472187088125
            0.44453796    0.81377028525955
 s    1 1.00
            0.12194962                   1
 p    1 1.00
                   0.8                   1

7 0
 s    3 1.00
             13.010701   0.033485484812989
             1.9622572    0.23472187088125
            0.44453796    0.81377028525955
 s    1 1.00
            0.12194962                   1
 p    1 1.00
                   0.8                   1

8 0
 s    5 1.00
          1712.8415853  -0.0054477995804909
          257.64812677  -0.040627174632423
          58.458245853   -0.18111962250584
          16.198367905   -0.46843975563173
          5.0052600809   -0.44616846289231
 s    1 1.00
         0.58731856571                   1
 s    1 1.00
         0.18764592253                   1
 p    3 1.00
          13.571470233  -0.058848116969522
          2.9257372874   -0.32024624762471
         0.79927750754   -0.75328226520436
 p    1 1.00
         0.21954348034                   1
 d    1 1.00
                     1                   1

9 0
 s    3 1.00
             13.010701   0.033485484812989
             1.9622572    0.23472187088125
            0.44453796    0.81377028525955
 s    1 1.00
            0.12194962                   1
 p    1 1.00
                   0.8                   1

10 0
 s    3 1.00
             13.010701   0.033485484812989
             1.9622572    0.23472187088125
            0.44453796    0.81377028525955
 s    1 1.00
            0.12194962                   1
 p    1 1.00
                   0.8                   1

11 0
 s    3 1.00
             13.010701   0.033485484812989
             1.9622572    0.23472187088125
            0.44453796    0.81377028525955
 s    1 1.00
            0.12194962                   1
 p    1 1.00
                   0.8                   1

12 0
 s    5 1.00
          1712.8415853  -0.0054477995804909
          257.64812677  -0.040627174632423
          58.458245853   -0.18111962250584
          16.198367905   -0.46843975563173
          5.0052600809   -0.44616846289231
 s    1 1.00
         0.58731856571                   1
 s    1 1.00
         0.18764592253                   1
 p    3 1.00
          13.571470233  -0.058848116969522
          2.9257372874   -0.32024624762471
         0.79927750754   -0.75328226520436
 p    1 1.00
         0.21954348034                   1
 d    1 1.00
                     1                   1

13 0
 s    3 1.00
             13.010701   0.033485484812989
             1.9622572    0.23472187088125
            0.44453796    0.81377028525955
 s    1 1.00
            0.12194962                   1
 p    1 1.00
                   0.8                   1

14 0
 s    3 1.00
             13.010701   0.033485484812989
             1.9622572    0.23472187088125
            0.44453796    0.81377028525955
 s    1 1.00
            0.12194962                   1
 p    1 1.00
                   0.8                   1

15 0
 s    3 1.00
             13.010701   0.033485484812989
             1.9622572    0.23472187088125
            0.44453796    0.81377028525955
 s    1 1.00
            0.12194962                   1
 p    1 1.00
                   0.8                   1

16 0
 s    5 1.00
          1712.8415853  -0.0054477995804909
          257.64812677  -0.040627174632423
          58.458245853   -0.18111962250584
          16.198367905   -0.46843975563173
          5.0052600809   -0.44616846289231
 s    1 1.00
         0.58731856571                   1
 s    1 1.00
         0.18764592253                   1
 p    3 1.00
          13.571470233  -0.058848116969522
          2.9257372874   -0.32024624762471
         0.79927750754   -0.75328226520436
 p    1 1.00
         0.21954348034                   1
 d    1 1.00
                     1                   1

17 0
 s    3 1.00
             13.010701   0.033485484812989
             1.9622572    0.23472187088125
            0.44453796    0.81377028525955
 s    1 1.00
            0.12194962                   1
 p    1 1.00
                   0.8                   1

18 0
 s    3 1.00
             13.010701   0.033485484812989
             1.9622572    0.23472187088125
            0.44453796    0.81377028525955
 s    1 1.00
            0.12194962                   1
 p    1 1.00
                   0.8                   1

19 0
 s    3 1.00
             13.010701   0.033485484812989
             1.9622572    0.23472187088125
            0.44453796    0.81377028525955
 s    1 1.00
            0.12194962                   1
 p    1 1.00
                   0.8                   1

20 0
 s    5 1.00
          1712.8415853  -0.0054477995804909
          257.64812677  -0.040627174632423
          58.458245853   -0.18111962250584
          16.198367905   -0.46843975563173
          5.0052600809   -0.44616846289231
 s    1 1.00
         0.58731856571                   1
 s    1 1.00
         0.18764592253                   1
 p    3 1.00
          13.571470233  -0.058848116969522
          2.9257372874   -0.32024624762471
         0.79927750754   -0.75328226520436
 p    1 1.00
         0.21954348034                   1
 d    1 1.00
                     1                   1

21 0
 s    3 1.00
             13.010701   0.033485484812989
             1.9622572    0.23472187088125
            0.44453796    0.81377028525955
 s    1 1.00
            0.12194962                   1
 p    1 1.00
                   0.8                   1

22 0
 s    3 1.00
             13.010701   0.033485484812989
             1.9622572    0.23472187088125
            0.44453796    0.81377028525955
 s    1 1.00
            0.12194962                   1
 p    1 1.00
                   0.8                   1

23 0
 s    3 1.00
             13.010701   0.033485484812989
             1.9622572    0.23472187088125
            0.44453796    0.81377028525955
 s    1 1.00
            0.12194962                   1
 p    1 1.00
                   0.8                   1

24 0
 s    5 1.00
          1712.8415853  -0.0054477995804909
          257.64812677  -0.040627174632423
          58.458245853   -0.18111962250584
          16.198367905   -0.46843975563173
          5.0052600809   -0.44616846289231
 s    1 1.00
         0.58731856571                   1
 s    1 1.00
         0.18764592253                   1
 p    3 1.00
          13.571470233  -0.058848116969522
          2.9257372874   -0.32024624762471
         0.79927750754   -0.75328226520436
 p    1 1.00
         0.21954348034                   1
 d    1 1.00
                     1                   1

25 0
 s    3 1.00
             13.010701   0.033485484812989
             1.9622572    0.23472187088125
            0.44453796    0.81377028525955
 s    1 1.00
            0.12194962                   1
 p    1 1.00
                   0.8                   1

26 0
 s    3 1.00
             13.010701   0.033485484812989
             1.9622572    0.23472187088125
            0.44453796    0.81377028525955
 s    1 1.00
            0.12194962                   1
 p    1 1.00
                   0.8                   1

27 0
 s    3 1.00
             13.010701   0.033485484812989
             1.9622572    0.23472187088125
            0.44453796    0.81377028525955
 s    1 1.00
            0.12194962                   1
 p    1 1.00
                   0.8                   1

28 0
 s    5 1.00
          1712.8415853  -0.0054477995804909
          257.64812677  -0.040627174632423
          58.458245853   -0.18111962250584
          16.198367905   -0.46843975563173
          5.0052600809   -0.44616846289231
 s    1 1.00
         0.58731856571                   1
 s    1 1.00
         0.18764592253                   1
 p    3 1.00
          13.571470233  -0.058848116969522
          2.9257372874   -0.32024624762471
         0.79927750754   -0.75328226520436
 p    1 1.00
         0.21954348034                   1
 d    1 1.00
                     1                   1

29 0
 s    3 1.00
             13.010701   0.033485484812989
             1.9622572    0.23472187088125
            0.44453796    0.81377028525955
 s    1 1.00
            0.12194962                   1
 p    1 1.00
                   0.8                   1

30 0
 s    3 1.00
             13.010701   0.033485484812989
             1.9622572    0.23472187088125
            0.44453796    0.81377028525955
 s    1 1.00
            0.12194962                   1
 p    1 1.00
                   0.8                   1

31 0
 s    3 1.00
             13.010701   0.033485484812989
             1.9622572    0.23472187088125
            0.44453796    0.81377028525955
 s    1 1.00
            0.12194962                   1
 p    1 1.00
                   0.8                   1

32 0
 s    5 1.00
          1712.8415853  -0.0054477995804909
          257.64812677  -0.040627174632423
          58.458245853   -0.18111962250584
          16.198367905   -0.46843975563173
          5.0052600809   -0.44616846289231
 s    1 1.00
         0.58731856571                   1
 s    1 1.00
         0.18764592253                   1
 p    3 1.00
          13.571470233  -0.058848116969522
          2.9257372874   -0.32024624762471
         0.79927750754   -0.75328226520436
 p    1 1.00
         0.21954348034                   1
 d    1 1.00
                     1                   1

33 0
 s    3 1.00
             13.010701   0.033485484812989
             1.9622572    0.23472187088125
            0.44453796    0.81377028525955
 s    1 1.00
            0.12194962                   1
 p    1 1.00
                   0.8                   1

34 0
 s    3 1.00
             13.010701   0.033485484812989
             1.9622572    0.23472187088125
            0.44453796    0.81377028525955
 s    1 1.00
            0.12194962                   1
 p    1 1.00
                   0.8                   1

35 0
 s    3 1.00
             13.010701   0.033485484812989
             1.9622572    0.23472187088125
            0.44453796    0.81377028525955
 s    1 1.00
            0.12194962                   1
 p    1 1.00
                   0.8                   1

36 0
 s    5 1.00
          1712.8415853  -0.0054477995804909
          257.64812677  -0.040627174632423
          58.458245853   -0.18111962250584
          16.198367905   -0.46843975563173
          5.0052600809   -0.44616846289231
 s    1 1.00
         0.58731856571                   1
 s    1 1.00
         0.18764592253                   1
 p    3 1.00
          13.571470233  -0.058848116969522
          2.9257372874   -0.32024624762471
         0.79927750754   -0.75328226520436
 p    1 1.00
         0.21954348034                   1
 d    1 1.00
                     1                   1

37 0
 s    3 1.00
             13.010701   0.033485484812989
             1.9622572    0.23472187088125
            0.44453796    0.81377028525955
 s    1 1.00
            0.12194962                   1
 p    1 1.00
                   0.8                   1

38 0
 s    3 1.00
             13.010701   0.033485484812989
             1.9622572    0.23472187088125
            0.44453796    0.81377028525955
 s    1 1.00
            0.12194962                   1
 p    1 1.00
                   0.8                   1

39 0
 s    3 1.00
             13.010701   0.033485484812989
             1.9622572    0.23472187088125
            0.44453796    0.81377028525955
 s    1 1.00
            0.12194962                   1
 p    1 1.00
                   0.8                   1

40 0
 s    5 1.00
          1712.8415853  -0.0054477995804909
          257.64812677  -0.040627174632423
          58.458245853   -0.18111962250584
          16.198367905   -0.46843975563173
          5.0052600809   -0.44616846289231
 s    1 1.00
         0.58731856571                   1
 s    1 1.00
         0.18764592253                   1
 p    3 1.00
          13.571470233  -0.058848116969522
          2.9257372874   -0.32024624762471
         0.79927750754   -0.75328226520436
 p    1 1.00
         0.21954348034                   1
 d    1 1.00
                     1                   1

41 0
 s    3 1.00
             13.010701   0.033485484812989
             1.9622572    0.23472187088125
            0.44453796    0.81377028525955
 s    1 1.00
            0.12194962                   1
 p    1 1.00
                   0.8                   1

42 0
 s    3 1.00
             13.010701   0.033485484812989
             1.9622572    0.23472187088125
            0.44453796    0.81377028525955
 s    1 1.00
            0.12194962                   1
 p    1 1.00
                   0.8                   1

43 0
 s    3 1.00
             13.010701   0.033485484812989
             1.9622572    0.23472187088125
            0.44453796    0.81377028525955
 s    1 1.00
            0.12194962                   1
 p    1 1.00
                   0.8                   1

[5d]
[7f]
[9g]

[MO]
 Sym= A
 Ene=               0
 Spin= Alpha
 Occup=    1.00000
   1    2.7277771690359e-06
   2    -2.1198172615534e-05
   3    1.5402542061191e-05
   4    -0.00030778303952818
   5    -0.00037992236458994
   6    -3.7219063759686e-05
   7    -0.00011606697950217
   8    5.0829988162456e-05
   9    4.1293147726333e-05
  10    0.0004390802010963
  11    -0.00011804800950324
  12    7.4288582965699e-05
  13    -0.00013592786308573
  14    0.00024701215027565
  15    -0.066213086357623
  16     0.042958809523747
  17     0.083654979301202
  18     0.074645851993725
  19     0.039790951358677
  20    -0.047913740955496
  21     0.031129574530767
  22     0.060516318362684
  23     0.053753823015477
  24     0.028796108297003
  25    0.00034747706689628
  26    -0.00029121813566509
  27    -0.00011349730779482
  28    0.00019616921979891
  29    -3.9937249118942e-05
  30    0.00037624791561555
  31    -0.00021411001818581
  32    -1.2918435065369e-06
  33    1.9312506521612e-05
  34    1.4639743361047e-05
  35    0.0002623247338976
  36    0.00037633919745436
  37    0.00011719508248759
  38    7.8640204428918e-05
  39    -6.9749797418005e-05
  40    -0.00043770013913439
  41    -0.00017962560787549
  42    0.0002657759415009
  43    -6.8046942712055e-05
  44    0.00010749495940555
  45    -0.00011697421349875
  46    -0.068105462691609
  47     0.044348766005762
  48     0.086054437324149
  49     0.076902942624504
  50      0.04098689650383
  51     -0.04934670241566
  52     0.032159630703938
  53     0.062205273827141
  54     0.055411189437694
  55     0.029745054302085
  56    -0.00035421868675945
  57    0.00029955254614253
  58    0.00011596730718712
  59    -0.00020377426235501
  60    4.6077277911242e-05
  61    -0.00039209138157755
  62    0.00022006176016073
  63    3.5032051640437e-06
  64    3.9257276728991e-05
  65    3.4239898218641e-05
  66    -4.3773984850937e-05
  67    4.6567799963285e-05
  68    4.206012863891e-05
  69    -7.2192593702828e-05
  70    9.2915644535513e-05
  71    9.0439089439873e-05
  72    -0.00055582557599796
  73    0.0003697456227614
  74    0.00070826287878769
  75    0.00061664588348322
  76    0.00033746659173089
  77     0.042260654514206
  78      0.10650337298268
  79     0.093797842736843
  80       0.1471182053037
  81     0.059201894238728
  82     0.049473730298233
  83     -0.10417408536834
  84    -0.044197529208619
  85     -0.03499838750341
  86    -0.00016711815748991
  87    0.00026343367950874
  88    0.00028241432186281
  89    9.0666657871113e-07
  90    0.00019150233847243
  91    -0.017531647247973
  92    -0.010685739263217
  93    -0.0028320457985655
  94    -0.0028192909416148
  95    -0.0030092469718476
  96    -0.017250096829143
  97      -0.0132160581647
  98    -0.0042023978692519
  99    -0.0022926996387995
 100    0.00058419339417619
 101    -0.011894213334965
 102     -0.01397178408463
 103    -0.0050319099406487
 104    -0.00020727318625847
 105    -0.0013730550981567
 106    -0.042087052649054
 107     -0.10623588354511
 108    -0.093256453365364
 109    -0.0031536896804027
 110     -0.10352082485701
 111      0.13024673049376
 112    -1.1213206930238e-05
 113     0.075861603058353
 114    -0.091989233689135
 115    -3.8986784150582e-05
 116    0.00010260712060178
 117    0.00036195544534801
 118    0.00027044864546615
 119    0.00026104336462281
 120     0.010167083981887
 121     0.014012668410439
 122    0.0011866535274529
 123    0.0022458111086523
 124    -0.0048028078410639
 125      0.01798384000288
 126     0.011147926835191
 127    0.0002457313891948
 128    0.0044661867650132
 129    -0.001910227397423
 130     0.017646947701853
 131     0.012074293915903
 132    -0.0017400580396826
 133    0.0019825075908506
 134    -0.0039209263474949
 135    -0.042385647609701
 136     -0.10700935047011
 137      -0.0942546791749
 138    0.0089392833704308
 139      0.10097399646962
 140      -0.1319139108071
 141    -0.0082227848369401
 142    -0.071396748623359
 143     0.094398526764737
 144    -0.00034035412816655
 145    0.00020846695397181
 146    0.0002118144149534
 147    1.1379822046864e-05
 148    8.8327761939308e-05
 149     0.017358470925684
 150     0.010682291296389
 151    -0.0007176795811095
 152    -0.00085102154705677
 153     0.004879859981383
 154     0.012105020769396
 155     0.014202324865359
 156    0.0011816778067351
 157    -0.0037735654926033
 158    0.0034209888008095
 159     0.016966483224103
 160     0.013324860329849
 161    -0.0016647515813747
 162    -0.0037441831705622
 163    0.0025527248606345
 164     0.042093658130003
 165      0.10602703276254
 166     0.093350184137262
 167     -0.14919368357757
 168    -0.053264682124213
 169    -0.050215097062482
 170      0.10798849987813
 171     0.035794350865559
 172     0.035468951446383
 173    -0.0003494609364062
 174    0.00012316008327916
 175    0.00012887413410278
 176    0.00031977074885321
 177    -1.3884440607833e-05
 178    -0.017154802057214
 179     -0.01217270431262
 180    0.0036581405674529
 181    0.00042437461772207
 182    0.0030070178475992
 183    -0.018107596878968
 184    -0.010961981485141
 185     0.004867383716003
 186    0.00035255542432322
 187    -0.00059383342172095
 188    -0.010974542886722
 189    -0.013562475640096
 190    0.0038846969565237
 191    0.0030944427287789
 192    0.0018583487154901
 193    -2.6853601771469e-05
 194    -0.00018522812404779
 195    -0.00011024115756254
 196    -0.00023168640239912
 197    -0.00023553673593907
 198    0.00019216977838588
 199    0.0012053226175807
 200    0.0014786042745832
 201    -0.00097095452613262
 202    -0.00027888969444612
 203    0.00017942728545528
 204    0.00035931629948055
 205    0.0003320204256093
 206    0.00017231187705704
 207    -0.0015438434571219
 208    -0.00080373846239835
 209    0.00035053111453393
 210    -0.00048780660455715
 211    6.1566697352033e-05
 212    0.0012844806719669
 213    0.00083767004618451
 214    -0.00049309906582847
 215    0.00031379579178488
 216    -4.9612405655823e-05
 217    8.5018185528796e-05
 218    0.0001761976450206
 219    0.00035150612776617
 220    0.00040390024247245
 221    -0.00016499399224863
 222     0.043628561191392
 223      0.11019894393171
 224     0.096874552941543
 225     -0.15169597696303
 226    -0.061395119286803
 227    -0.050967814915844
 228      0.10723359636612
 229      0.04614246373867
 230     0.036087671042669
 231    -0.00018501364166628
 232    0.00026876860744241
 233    0.0003116106498473
 234    8.1325985519207e-06
 235    0.00018801003042088
 236     -0.01169850793472
 237    -0.014641984177367
 238      0.00526663654374
 239    0.00029430993769869
 240    0.0013192910937989
 241    -0.018093042871068
 242    -0.013563658691668
 243    0.0042284452467854
 244    0.0025014730677802
 245    -0.00059598594713315
 246    -0.017919323971022
 247    -0.011219384237009
 248    0.0029384327991227
 249    0.0027781039024677
 250    0.0031635815049373
 251    -0.043268578970562
 252     -0.10902190693784
 253     -0.09581350403739
 254    0.0033737159260267
 255      0.10620182739181
 256     -0.13409796459688
 257    -0.00015555851914983
 258    -0.077736497699943
 259     0.094825891817288
 260    -3.0019534731161e-05
 261    9.4828077548563e-05
 262    0.00037326173918288
 263    0.0002593475793924
 264    0.00025761706025405
 265     0.018660050942188
 266        0.011349545347
 267    -8.9161591551811e-05
 268    -0.0046398676731742
 269    0.0019495237302662
 270     0.010876699649482
 271     0.014171531179555
 272    -0.0012991607274448
 273     -0.00230425255608
 274    0.0048409530992768
 275     0.018011782874107
 276     0.012343476536877
 277    0.0016818404181632
 278    -0.0019261183541233
 279    0.0041541218494778
 280       0.0433460930414
 281      0.10939825053061
 282     0.096114853370274
 283      0.15393407782383
 284     0.054536271452393
 285     0.051530309703489
 286     -0.11137286198676
 287    -0.036405462824697
 288    -0.036248402393347
 289    -0.00035814374036766
 290    0.00012328663768599
 291    0.00015849038042013
 292    0.00032718239646999
 293    -8.3643597051814e-06
 294    -0.018487931550299
 295     -0.01137598147172
 296    -0.0049865667915814
 297    -0.00046683484034556
 298    0.00065844447124318
 299    -0.017856656637492
 300    -0.012650471920103
 301    -0.0038001921760391
 302    -0.00031491219282058
 303    -0.0030565866910974
 304    -0.011071744924751
 305    -0.014224776411614
 306    -0.0040277877423905
 307    -0.0031681105512938
 308    -0.0019979300518346
 309    -0.043567850980423
 310     -0.10983460177529
 311    -0.096637386188326
 312    -0.0087352746748918
 313      -0.1038551988619
 314      0.13564336079338
 315    0.0079062933396807
 316     0.073418186533979
 317    -0.097048753193526
 318    -0.00034573478467603
 319    0.00020590106287095
 320    0.00021083304314169
 321    9.8666264418989e-06
 322    7.2462681177573e-05
 323     0.018049857012501
 324     0.010841037610769
 325    0.00086072621018078
 326    0.00086682141249524
 327    -0.0050231409737981
 328     0.017120597473794
 329     0.013730184126849
 330    0.0015712853221342
 331    0.0039579665195203
 332    -0.0026171004300418
 333     0.012940598172822
 334     0.014339288117723
 335    -0.0013054653715687
 336    0.0037713116725455
 337    -0.0035256218163516
 338    2.5132415603291e-05
 339    0.00018604417037556
 340    6.8701030701743e-05
 341    0.0002080569606254
 342    0.0002864457125168
 343    -0.00017572150641523