[Molden Format]
made by pyscf v[2.1.1]
[Atoms] (AU)
Cr   1   24     1.56143912275337    -2.46507591990239    -1.82404491365355
Cr   2   24    -1.56139565905251     2.46513072196000     1.82399011159594
O   3   8     0.00002078698737     0.00002834589187    -0.00002645616574
N   4   7     5.12832174930954    -1.10581670549011    -0.60767356069801
H   5   1     6.65216855026694    -1.66292686427314    -1.66487895135981
H   6   1     5.63710405218294    -1.59213394419468     1.18765885421890
H   7   1     5.20084187906585     0.81566059741989    -0.65509245834172
N   8   7     1.71230729763415    -0.02251608677419    -4.99594076510539
H   9   1     0.29795878723855     1.27247165241550    -4.90823668593820
H   10   1     1.50271021425414    -0.85583806455427    -6.73026148236459
H   11   1     3.34039895052705     0.99863710888315    -5.18656310846864
N   12   7     1.41057094787259    -4.90763575303059     1.34785282752440
H   13   1     1.64193389675534    -6.79355407945465     0.97314659318890
H   14   1    -0.29048681014202    -4.81040367474334     2.24006056107205
H   15   1     2.72468082571676    -4.56691435331926     2.71738081369757
N   16   7    -2.00544350380280    -3.82433513431467    -3.04041437688297
H   17   1    -2.87205678671934    -5.05516478184926    -1.83221042023780
H   18   1    -2.03637832046193    -4.76397121413665    -4.73247136936628
H   19   1    -3.24475802163669    -2.37551046050250    -3.28123540501917
N   20   7     3.37923471211299    -5.33493873459111    -3.94755661599306
H   21   1     4.17102617885350    -4.76109883042731    -5.61685374703210
H   22   1     2.26176595533881    -6.82326057413281    -4.47610923358166
H   23   1     4.85383336053810    -6.19899521806112    -3.03922195969837
N   24   7    -5.12827828560868     1.10587339727385     0.60762064836653
H   25   1    -5.15408816501799    -0.81544705836782     0.54662784797006
H   26   1    -5.69743166898356     1.68113626520945    -1.14337690194197
H   27   1    -6.63528195761783     1.56841410187914     1.73267665553083
N   28   7    -1.71226383393328     0.02257088883181     4.99588785277390
H   29   1    -1.62991523860311     0.86667375415253     6.73575491620870
H   30   1    -0.22416876152653    -1.19157625647512     4.98456461383551
H   31   1    -3.28782110056328    -1.08746368536834     5.11339858210385
N   32   7     2.00548696750367     3.82438993637228     3.04035957482536
H   33   1     2.05186651577887     4.68410571893416     4.77402266739321
H   34   1     2.83712330958063     5.12208376337235     1.87805706574587
H   35   1     3.26582090902109     2.38241174030942     3.19051154350492
N   36   7    -1.41052748417173     4.90769055508820    -1.34790762958202
H   37   1    -1.75003190025884     6.78104976168840    -0.99229329828299
H   38   1    -2.65834387984003     4.49309409198925    -2.75785496783350
H   39   1     0.32278033988471     4.89894112313146    -2.18344058692784
N   40   7    -3.37919124841212     5.33499353664873     3.94750181393545
H   41   1    -2.26357064378777     6.83195331430581     4.45515784003860
H   42   1    -4.15358022727151     4.76963661305810     5.62761006813313
H   43   1    -4.86681766873998     6.18449345978121     3.04686590187224
[GTO]
1 0
 s    6 1.00
          51528.086349  0.0017695545768669
          7737.2103487   0.013556436258096
           1760.374847   0.067162645785071
          496.87706544    0.23295905918518
          161.46520598    0.47040576982722
          55.466352268    0.35733072606876
 s    3 1.00
          107.54732999   -0.10605255446629
          12.408671897    0.62543981484169
          5.0423628826    0.44878820793655
 s    3 1.00
          8.5461640165   -0.21819012081133
          1.3900441221    0.70422525667731
         0.56066602876    0.42488555412558
 s    1 1.00
        0.071483705972                   1
 s    1 1.00
        0.028250687604                   1
 p    5 1.00
          640.48536096  0.0093555063746755
          150.69711194   0.068993338492216
          47.503755296     0.2634118959318
          16.934120165    0.51034501651775
           6.240968059    0.33195512953954
 p    3 1.00
          3.0885463206    0.32917682676976
          1.1791047769    0.55491385190365
         0.43369774432    0.23818412855984
 p    1 1.00
              0.120675                   1
 d    4 1.00
          27.559479426   0.036950140313562
          7.4687020327    0.18821519783039
          2.4345903574    0.44641244239929
         0.78244754808     0.5681617303244
 d    1 1.00
         0.21995774311                   1
 f    1 1.00
                 1.147                   1

2 0
 s    6 1.00
          51528.086349  0.0017695545768669
          7737.2103487   0.013556436258096
           1760.374847   0.067162645785071
          496.87706544    0.23295905918518
          161.46520598    0.47040576982722
          55.466352268    0.35733072606876
 s    3 1.00
          107.54732999   -0.10605255446629
          12.408671897    0.62543981484169
          5.0423628826    0.44878820793655
 s    3 1.00
          8.5461640165   -0.21819012081133
          1.3900441221    0.70422525667731
         0.56066602876    0.42488555412558
 s    1 1.00
        0.071483705972                   1
 s    1 1.00
        0.028250687604                   1
 p    5 1.00
          640.48536096  0.0093555063746755
          150.69711194   0.068993338492216
          47.503755296     0.2634118959318
          16.934120165    0.51034501651775
           6.240968059    0.33195512953954
 p    3 1.00
          3.0885463206    0.32917682676976
          1.1791047769    0.55491385190365
         0.43369774432    0.23818412855984
 p    1 1.00
              0.120675                   1
 d    4 1.00
          27.559479426   0.036950140313562
          7.4687020327    0.18821519783039
          2.4345903574    0.44641244239929
         0.78244754808     0.5681617303244
 d    1 1.00
         0.21995774311                   1
 f    1 1.00
                 1.147                   1

3 0
 s    5 1.00
          2266.1767785  -0.0053893503921743
          340.87010191   -0.04023472138896
          77.363135167   -0.18008184205526
           21.47964494   -0.46828857657651
          6.6589433124   -0.44692617160187
 s    1 1.00
         0.80975975668                   1
 s    1 1.00
         0.25530772234                   1
 p    3 1.00
          17.721504317   0.062630248763161
           3.863550544    0.33331138482352
          1.0480920883    0.74148638308122
 p    1 1.00
         0.27641544411                   1
 d    1 1.00
                   1.2                   1

4 0
 s    5 1.00
          1712.8415853  -0.0054477995804909
          257.64812677  -0.040627174632423
          58.458245853   -0.18111962250584
          16.198367905   -0.46843975563173
          5.0052600809   -0.44616846289231
 s    1 1.00
         0.58731856571                   1
 s    1 1.00
         0.18764592253                   1
 p    3 1.00
          13.571470233  -0.058848116969522
          2.9257372874   -0.32024624762471
         0.79927750754   -0.75328226520436
 p    1 1.00
         0.21954348034                   1
 d    1 1.00
                     1                   1

5 0
 s    3 1.00
             13.010701   0.033485484812989
             1.9622572    0.23472187088125
            0.44453796    0.81377028525955
 s    1 1.00
            0.12194962                   1
 p    1 1.00
                   0.8                   1

6 0
 s    3 1.00
             13.010701   0.033485484812989
             1.9622572    0.23472187088125
            0.44453796    0.81377028525955
 s    1 1.00
            0.12194962                   1
 p    1 1.00
                   0.8                   1

7 0
 s    3 1.00
             13.010701   0.033485484812989
             1.9622572    0.23472187088125
            0.44453796    0.81377028525955
 s    1 1.00
            0.12194962                   1
 p    1 1.00
                   0.8                   1

8 0
 s    5 1.00
          1712.8415853  -0.0054477995804909
          257.64812677  -0.040627174632423
          58.458245853   -0.18111962250584
          16.198367905   -0.46843975563173
          5.0052600809   -0.44616846289231
 s    1 1.00
         0.58731856571                   1
 s    1 1.00
         0.18764592253                   1
 p    3 1.00
          13.571470233  -0.058848116969522
          2.9257372874   -0.32024624762471
         0.79927750754   -0.75328226520436
 p    1 1.00
         0.21954348034                   1
 d    1 1.00
                     1                   1

9 0
 s    3 1.00
             13.010701   0.033485484812989
             1.9622572    0.23472187088125
            0.44453796    0.81377028525955
 s    1 1.00
            0.12194962                   1
 p    1 1.00
                   0.8                   1

10 0
 s    3 1.00
             13.010701   0.033485484812989
             1.9622572    0.23472187088125
            0.44453796    0.81377028525955
 s    1 1.00
            0.12194962                   1
 p    1 1.00
                   0.8                   1

11 0
 s    3 1.00
             13.010701   0.033485484812989
             1.9622572    0.23472187088125
            0.44453796    0.81377028525955
 s    1 1.00
            0.12194962                   1
 p    1 1.00
                   0.8                   1

12 0
 s    5 1.00
          1712.8415853  -0.0054477995804909
          257.64812677  -0.040627174632423
          58.458245853   -0.18111962250584
          16.198367905   -0.46843975563173
          5.0052600809   -0.44616846289231
 s    1 1.00
         0.58731856571                   1
 s    1 1.00
         0.18764592253                   1
 p    3 1.00
          13.571470233  -0.058848116969522
          2.9257372874   -0.32024624762471
         0.79927750754   -0.75328226520436
 p    1 1.00
         0.21954348034                   1
 d    1 1.00
                     1                   1

13 0
 s    3 1.00
             13.010701   0.033485484812989
             1.9622572    0.23472187088125
            0.44453796    0.81377028525955
 s    1 1.00
            0.12194962                   1
 p    1 1.00
                   0.8                   1

14 0
 s    3 1.00
             13.010701   0.033485484812989
             1.9622572    0.23472187088125
            0.44453796    0.81377028525955
 s    1 1.00
            0.12194962                   1
 p    1 1.00
                   0.8                   1

15 0
 s    3 1.00
             13.010701   0.033485484812989
             1.9622572    0.23472187088125
            0.44453796    0.81377028525955
 s    1 1.00
            0.12194962                   1
 p    1 1.00
                   0.8                   1

16 0
 s    5 1.00
          1712.8415853  -0.0054477995804909
          257.64812677  -0.040627174632423
          58.458245853   -0.18111962250584
          16.198367905   -0.46843975563173
          5.0052600809   -0.44616846289231
 s    1 1.00
         0.58731856571                   1
 s    1 1.00
         0.18764592253                   1
 p    3 1.00
          13.571470233  -0.058848116969522
          2.9257372874   -0.32024624762471
         0.79927750754   -0.75328226520436
 p    1 1.00
         0.21954348034                   1
 d    1 1.00
                     1                   1

17 0
 s    3 1.00
             13.010701   0.033485484812989
             1.9622572    0.23472187088125
            0.44453796    0.81377028525955
 s    1 1.00
            0.12194962                   1
 p    1 1.00
                   0.8                   1

18 0
 s    3 1.00
             13.010701   0.033485484812989
             1.9622572    0.23472187088125
            0.44453796    0.81377028525955
 s    1 1.00
            0.12194962                   1
 p    1 1.00
                   0.8                   1

19 0
 s    3 1.00
             13.010701   0.033485484812989
             1.9622572    0.23472187088125
            0.44453796    0.81377028525955
 s    1 1.00
            0.12194962                   1
 p    1 1.00
                   0.8                   1

20 0
 s    5 1.00
          1712.8415853  -0.0054477995804909
          257.64812677  -0.040627174632423
          58.458245853   -0.18111962250584
          16.198367905   -0.46843975563173
          5.0052600809   -0.44616846289231
 s    1 1.00
         0.58731856571                   1
 s    1 1.00
         0.18764592253                   1
 p    3 1.00
          13.571470233  -0.058848116969522
          2.9257372874   -0.32024624762471
         0.79927750754   -0.75328226520436
 p    1 1.00
         0.21954348034                   1
 d    1 1.00
                     1                   1

21 0
 s    3 1.00
             13.010701   0.033485484812989
             1.9622572    0.23472187088125
            0.44453796    0.81377028525955
 s    1 1.00
            0.12194962                   1
 p    1 1.00
                   0.8                   1

22 0
 s    3 1.00
             13.010701   0.033485484812989
             1.9622572    0.23472187088125
            0.44453796    0.81377028525955
 s    1 1.00
            0.12194962                   1
 p    1 1.00
                   0.8                   1

23 0
 s    3 1.00
             13.010701   0.033485484812989
             1.9622572    0.23472187088125
            0.44453796    0.81377028525955
 s    1 1.00
            0.12194962                   1
 p    1 1.00
                   0.8                   1

24 0
 s    5 1.00
          1712.8415853  -0.0054477995804909
          257.64812677  -0.040627174632423
          58.458245853   -0.18111962250584
          16.198367905   -0.46843975563173
          5.0052600809   -0.44616846289231
 s    1 1.00
         0.58731856571                   1
 s    1 1.00
         0.18764592253                   1
 p    3 1.00
          13.571470233  -0.058848116969522
          2.9257372874   -0.32024624762471
         0.79927750754   -0.75328226520436
 p    1 1.00
         0.21954348034                   1
 d    1 1.00
                     1                   1

25 0
 s    3 1.00
             13.010701   0.033485484812989
             1.9622572    0.23472187088125
            0.44453796    0.81377028525955
 s    1 1.00
            0.12194962                   1
 p    1 1.00
                   0.8                   1

26 0
 s    3 1.00
             13.010701   0.033485484812989
             1.9622572    0.23472187088125
            0.44453796    0.81377028525955
 s    1 1.00
            0.12194962                   1
 p    1 1.00
                   0.8                   1

27 0
 s    3 1.00
             13.010701   0.033485484812989
             1.9622572    0.23472187088125
            0.44453796    0.81377028525955
 s    1 1.00
            0.12194962                   1
 p    1 1.00
                   0.8                   1

28 0
 s    5 1.00
          1712.8415853  -0.0054477995804909
          257.64812677  -0.040627174632423
          58.458245853   -0.18111962250584
          16.198367905   -0.46843975563173
          5.0052600809   -0.44616846289231
 s    1 1.00
         0.58731856571                   1
 s    1 1.00
         0.18764592253                   1
 p    3 1.00
          13.571470233  -0.058848116969522
          2.9257372874   -0.32024624762471
         0.79927750754   -0.75328226520436
 p    1 1.00
         0.21954348034                   1
 d    1 1.00
                     1                   1

29 0
 s    3 1.00
             13.010701   0.033485484812989
             1.9622572    0.23472187088125
            0.44453796    0.81377028525955
 s    1 1.00
            0.12194962                   1
 p    1 1.00
                   0.8                   1

30 0
 s    3 1.00
             13.010701   0.033485484812989
             1.9622572    0.23472187088125
            0.44453796    0.81377028525955
 s    1 1.00
            0.12194962                   1
 p    1 1.00
                   0.8                   1

31 0
 s    3 1.00
             13.010701   0.033485484812989
             1.9622572    0.23472187088125
            0.44453796    0.81377028525955
 s    1 1.00
            0.12194962                   1
 p    1 1.00
                   0.8                   1

32 0
 s    5 1.00
          1712.8415853  -0.0054477995804909
          257.64812677  -0.040627174632423
          58.458245853   -0.18111962250584
          16.198367905   -0.46843975563173
          5.0052600809   -0.44616846289231
 s    1 1.00
         0.58731856571                   1
 s    1 1.00
         0.18764592253                   1
 p    3 1.00
          13.571470233  -0.058848116969522
          2.9257372874   -0.32024624762471
         0.79927750754   -0.75328226520436
 p    1 1.00
         0.21954348034                   1
 d    1 1.00
                     1                   1

33 0
 s    3 1.00
             13.010701   0.033485484812989
             1.9622572    0.23472187088125
            0.44453796    0.81377028525955
 s    1 1.00
            0.12194962                   1
 p    1 1.00
                   0.8                   1

34 0
 s    3 1.00
             13.010701   0.033485484812989
             1.9622572    0.23472187088125
            0.44453796    0.81377028525955
 s    1 1.00
            0.12194962                   1
 p    1 1.00
                   0.8                   1

35 0
 s    3 1.00
             13.010701   0.033485484812989
             1.9622572    0.23472187088125
            0.44453796    0.81377028525955
 s    1 1.00
            0.12194962                   1
 p    1 1.00
                   0.8                   1

36 0
 s    5 1.00
          1712.8415853  -0.0054477995804909
          257.64812677  -0.040627174632423
          58.458245853   -0.18111962250584
          16.198367905   -0.46843975563173
          5.0052600809   -0.44616846289231
 s    1 1.00
         0.58731856571                   1
 s    1 1.00
         0.18764592253                   1
 p    3 1.00
          13.571470233  -0.058848116969522
          2.9257372874   -0.32024624762471
         0.79927750754   -0.75328226520436
 p    1 1.00
         0.21954348034                   1
 d    1 1.00
                     1                   1

37 0
 s    3 1.00
             13.010701   0.033485484812989
             1.9622572    0.23472187088125
            0.44453796    0.81377028525955
 s    1 1.00
            0.12194962                   1
 p    1 1.00
                   0.8                   1

38 0
 s    3 1.00
             13.010701   0.033485484812989
             1.9622572    0.23472187088125
            0.44453796    0.81377028525955
 s    1 1.00
            0.12194962                   1
 p    1 1.00
                   0.8                   1

39 0
 s    3 1.00
             13.010701   0.033485484812989
             1.9622572    0.23472187088125
            0.44453796    0.81377028525955
 s    1 1.00
            0.12194962                   1
 p    1 1.00
                   0.8                   1

40 0
 s    5 1.00
          1712.8415853  -0.0054477995804909
          257.64812677  -0.040627174632423
          58.458245853   -0.18111962250584
          16.198367905   -0.46843975563173
          5.0052600809   -0.44616846289231
 s    1 1.00
         0.58731856571                   1
 s    1 1.00
         0.18764592253                   1
 p    3 1.00
          13.571470233  -0.058848116969522
          2.9257372874   -0.32024624762471
         0.79927750754   -0.75328226520436
 p    1 1.00
         0.21954348034                   1
 d    1 1.00
                     1                   1

41 0
 s    3 1.00
             13.010701   0.033485484812989
             1.9622572    0.23472187088125
            0.44453796    0.81377028525955
 s    1 1.00
            0.12194962                   1
 p    1 1.00
                   0.8                   1

42 0
 s    3 1.00
             13.010701   0.033485484812989
             1.9622572    0.23472187088125
            0.44453796    0.81377028525955
 s    1 1.00
            0.12194962                   1
 p    1 1.00
                   0.8                   1

43 0
 s    3 1.00
             13.010701   0.033485484812989
             1.9622572    0.23472187088125
            0.44453796    0.81377028525955
 s    1 1.00
            0.12194962                   1
 p    1 1.00
                   0.8                   1

[5d]
[7f]
[9g]

[MO]
 Sym= A
 Ene=               0
 Spin= Alpha
 Occup=    1.00000
   1    -0.011491502030977
   2     0.027224792241217
   3     -0.20353885261386
   4     0.033228591007977
   5    0.0094983120481705
   6     -0.02677762618537
   7     0.041435054016176
   8     0.031260219592394
   9      0.13849088466551
  10     -0.21494793779669
  11     -0.16161564747135
  12    -0.0021926557174912
  13    0.0043702547940464
  14    0.0031411771985978
  15     0.033726129555948
  16    -0.072161124618787
  17     0.017915589559187
  18    -0.075961185151516
  19    -0.085622622060752
  20     0.027937384368795
  21    -0.038387247552841
  22    -0.0099350237205429
  23    -0.046306700162617
  24    -0.042887158490539
  25    -0.001705171209715
  26    -0.00019981913204654
  27    0.00072905680315349
  28    -0.0011824453084338
  29    -0.0022868579937533
  30    0.0013968261117614
  31    0.00035889002665359
  32     0.012124392017948
  33    -0.024995933137339
  34      0.22062998074214
  35    -0.048243868096795
  36    -0.0016262512039939
  37    -0.022369690520654
  38     0.034466714004728
  39     0.026105082322051
  40      0.11555740955667
  41     -0.17871011430221
  42     -0.13479654912237
  43    -0.015077627299904
  44     0.024619760816677
  45     0.017667963547727
  46    -0.029979670540912
  47     0.084672309924852
  48    -0.040295505066333
  49     0.083082565094452
  50      0.10277948346662
  51    -0.025065647712806
  52     0.047747541554324
  53    -0.0067146534516371
  54     0.051652485246709
  55     0.055862499653934
  56    -0.0035319129872433
  57    -0.00069649707602393
  58    0.0014965515928447
  59    -0.0025472101449184
  60    -0.0051788591949165
  61    0.0034812082853787
  62    0.00061144381538815
  63    -0.0090043278681505
  64     -0.18253688697694
  65     -0.13737088184688
  66      0.10830768032019
  67     -0.17058862159889
  68     -0.12503172235765
  69     0.095012297378661
  70     -0.14995203503258
  71     -0.10987759552526
  72    0.00037330112351502
  73    0.0019953939992401
  74    -0.0031594810366142
  75    0.0012724116146901
  76     0.002701586844824
  77    -0.033556523516116
  78    -0.059894367243172
  79    -0.067134077328181
  80     -0.14101484410673
  81    -0.028529318465288
  82    -0.027013573147115
  83     0.096829499993631
  84     0.027343961119853
  85     0.023107488048305
  86    0.00017286880297046
  87    -0.0013002575485578
  88    0.0001435281474209
  89    0.0011985062931629
  90    -0.0010382203093504
  91     0.048216083815484
  92     0.012091889010829
  93    -0.00061956289116179
  94    0.0025796623044698
  95    0.0043012689560254
  96     0.019355116460536
  97     0.007486638848884
  98    0.0040106943748931
  99    0.0014949662020943
 100    -0.0019204785489357
 101    0.0013909640111036
 102    0.0042535311921395
 103    0.0043953815895747
 104    0.0002490926076455
 105    0.00075161568034894
 106     0.019493320124672
 107     0.075128781650621
 108     0.048218232039135
 109    -0.015432057177949
 110     0.065646800711692
 111    -0.036347661419279
 112    0.0099652711630503
 113    -0.043858428968958
 114     0.026234254145132
 115    0.0014070696795443
 116    -0.0002346314481128
 117    0.00085014709905491
 118    -0.00013871112720174
 119    0.00078591287154663
 120    -0.017550335085132
 121    -0.014234420088127
 122    -0.00087889293074658
 123    -0.00064459273486052
 124    0.0017630432513996
 125     0.022108756964154
 126    -0.0028471918662442
 127    0.00097472204083658
 128    -0.0012827400941687
 129    0.0036591060311675
 130    0.0045487149640147
 131    -0.006820615489961
 132    -0.00038357674782668
 133    -0.0024228824425019
 134    0.0012666488338523
 135     0.018318446860739
 136     0.071917820150959
 137     0.044252335413145
 138     -0.02065119931254
 139    -0.015712187231932
 140      0.06950534432869
 141     0.013499550927529
 142     0.012005892532811
 143    -0.045444510578693
 144    -0.00069817081139463
 145    0.00036786037790158
 146    0.00040501949257534
 147    -0.0019108809421508
 148    -0.00061451041232275
 149     0.026920650025233
 150    -0.0018632802494958
 151    0.00048396189694735
 152    0.0036394261878704
 153    -0.0021150121156761
 154    -0.015815052342471
 155    -0.012453221144733
 156    -0.00075183095351288
 157    0.0011999217585603
 158    -0.0013758322011998
 159    -0.0024851979633216
 160    -0.009154736891959
 161    0.00043108957017512
 162    0.00072513287879642
 163    -0.0020960141316548
 164    -0.034382215310095
 165    -0.062232204752138
 166     -0.06869256690576
 167      0.11565728514287
 168     0.070854445682695
 169     0.060446820974617
 170    -0.087374985291924
 171    -0.043530975989833
 172    -0.038836887576156
 173     0.001389020313539
 174    -0.00019212066838716
 175    0.0011686918959287
 176    -0.00081352975353202
 177    0.00069428762602801
 178     0.022015019475942
 179     0.007617572464715
 180    -0.0022588439044888
 181    -0.00046221298515739
 182    -0.0041764490911008
 183     0.048154998369427
 184     0.012442243169844
 185    -0.0033450539897814
 186    0.00071530366507315
 187    0.0036959829056744
 188    -0.0030299571900464
 189    0.0036737348550123
 190    -0.0034608907813807
 191    -0.0022180119098263
 192     -0.00190836525444
 193     0.024993692658471
 194      0.10001148846272
 195     0.057574165579196
 196     0.028159408865949
 197    -0.044182874980675
 198    -0.032756423795032
 199    -0.022412659374625
 200     0.033047967707915
 201     0.025888871129536
 202    6.8785978287809e-05
 203    -0.00071011366815904
 204    0.00073212403320142
 205    -0.00060772500887377
 206    -0.00093202123991465
 207     0.013868981590967
 208    -0.0038779387044464
 209    -0.0018318871793198
 210    0.00056949939076021
 211    0.0026728179229447
 212     0.011730668064019
 213    -0.0048380200030124
 214    0.0010350583344251
 215    0.0025662646858918
 216    0.0013121814528371
 217     0.013087255477269
 218    -0.0047697589134909
 219    -0.0026420674850541
 220    0.0017548012445959
 221    -0.00036567699964256
 222     0.037999984993541
 223     0.088891601468109
 224     0.081759223087647
 225     -0.14030138159309
 226    -0.037836751986189
 227    -0.033376105129759
 228     0.099727144542197
 229     0.031862053725247
 230     0.026350083112385
 231    -0.00010868783262905
 232    0.0013004386503373
 233    2.5510031029029e-05
 234    -0.0012393579773348
 235     0.001003695410521
 236    0.0013401904986269
 237    -0.0054603147422695
 238     0.004017248721777
 239     0.001153810608561
 240    0.0011718601132073
 241    -0.013923909180904
 242    -0.0086965692361505
 243    0.0041658786806357
 244    0.0019112399669674
 245    -0.00084594239815882
 246    -0.033174788382654
 247     -0.01212432960831
 248    0.0013626947729442
 249    0.0021131338612068
 250    0.0034894263861779
 251     -0.01362681614128
 252    -0.042567509816653
 253    -0.029975704056385
 254    -0.010151670351664
 255     0.051289116496189
 256    -0.033820032204003
 257    0.0081306473776709
 258    -0.035053385689691
 259     0.020747845318405
 260    -0.0015113200435746
 261    0.00047522244658558
 262    -0.00091817433671519
 263    0.00016869858627233
 264    -0.00045981188711324
 265    -0.0096644295562547
 266    0.0021588679526764
 267    0.00051809315587903
 268    -0.0015213440323512
 269     0.001706994130145
 270     0.016487581113025
 271     0.011967841465255
 272    -0.0012058013074291
 273    -7.6038464397124e-05
 274     0.002022634564992
 275    0.0048534940183726
 276    0.0058831198095444
 277    0.00041571999965358
 278    -0.0010436255614633
 279    0.0010875757504969
 280     0.038781144557858
 281      0.09106055185998
 282     0.083547322604349
 283      0.12448512698438
 284      0.06441484625842
 285     0.056668262767856
 286     -0.09372121132199
 287    -0.042599551333925
 288    -0.038632259798935
 289    -0.0013261148041307
 290    4.5880520569969e-05
 291    -0.0011149262852526
 292    0.00090756687032454
 293    -0.00070020313260148
 294       -0.033481218856
 295    -0.012379491213932
 296    -0.0038532056970672
 297    -0.00035401066874982
 298    0.0019225323267546
 299    -0.015309464889949
 300    -0.0087486758271598
 301    -0.0032042731158015
 302    -0.00070865936633791
 303    -0.0033482494434084
 304    0.0044194164115624
 305    -0.0051678766625246
 306    -0.0038762656329356
 307    -0.0014761393175997
 308    -0.0014549016909502
 309    -0.012335018244821
 310     -0.03896133654907
 311    -0.026077612073742
 312     -0.01474441458128
 313    -0.016654139597188
 314     0.055917855108911
 315      0.01091186241919
 316    0.0089920077834959
 317    -0.036334321902037
 318    0.00085722501905075
 319    -0.00020577463790106
 320    -0.00028590635737933
 321    0.0018885176060046
 322    0.0008640220874525
 323    -0.013337280063061
 324    0.0012265054714767
 325    0.00045856930206674
 326    0.0015068953471211
 327    -0.0019205797839376
 328    0.0097315993664767
 329    0.0078545227972032
 330    0.00067175639426794
 331    0.0010750679898447
 332    -0.00078447807609817
 333     0.016586683097708
 334     0.010164993660148
 335    -0.0011958723186278
 336    0.0014971401833056
 337    -0.00074790110876716
 338    -0.014119163554568
 339    -0.055696866062035
 340    -0.022035262128224
 341     0.018061848062172
 342    -0.028281812087409
 343    -0.020998430320376
 344    -0.0096112237562168
 345     0.013031833018232
 346     0.011128885543141