[Molden Format]
made by pyscf v[2.1.1]
[Atoms] (AU)
Cr   1   24     1.56143912275337    -2.46507591990239    -1.82404491365355
Cr   2   24    -1.56139565905251     2.46513072196000     1.82399011159594
O   3   8     0.00002078698737     0.00002834589187    -0.00002645616574
N   4   7     5.12832174930954    -1.10581670549011    -0.60767356069801
H   5   1     6.65216855026694    -1.66292686427314    -1.66487895135981
H   6   1     5.63710405218294    -1.59213394419468     1.18765885421890
H   7   1     5.20084187906585     0.81566059741989    -0.65509245834172
N   8   7     1.71230729763415    -0.02251608677419    -4.99594076510539
H   9   1     0.29795878723855     1.27247165241550    -4.90823668593820
H   10   1     1.50271021425414    -0.85583806455427    -6.73026148236459
H   11   1     3.34039895052705     0.99863710888315    -5.18656310846864
N   12   7     1.41057094787259    -4.90763575303059     1.34785282752440
H   13   1     1.64193389675534    -6.79355407945465     0.97314659318890
H   14   1    -0.29048681014202    -4.81040367474334     2.24006056107205
H   15   1     2.72468082571676    -4.56691435331926     2.71738081369757
N   16   7    -2.00544350380280    -3.82433513431467    -3.04041437688297
H   17   1    -2.87205678671934    -5.05516478184926    -1.83221042023780
H   18   1    -2.03637832046193    -4.76397121413665    -4.73247136936628
H   19   1    -3.24475802163669    -2.37551046050250    -3.28123540501917
N   20   7     3.37923471211299    -5.33493873459111    -3.94755661599306
H   21   1     4.17102617885350    -4.76109883042731    -5.61685374703210
H   22   1     2.26176595533881    -6.82326057413281    -4.47610923358166
H   23   1     4.85383336053810    -6.19899521806112    -3.03922195969837
N   24   7    -5.12827828560868     1.10587339727385     0.60762064836653
H   25   1    -5.15408816501799    -0.81544705836782     0.54662784797006
H   26   1    -5.69743166898356     1.68113626520945    -1.14337690194197
H   27   1    -6.63528195761783     1.56841410187914     1.73267665553083
N   28   7    -1.71226383393328     0.02257088883181     4.99588785277390
H   29   1    -1.62991523860311     0.86667375415253     6.73575491620870
H   30   1    -0.22416876152653    -1.19157625647512     4.98456461383551
H   31   1    -3.28782110056328    -1.08746368536834     5.11339858210385
N   32   7     2.00548696750367     3.82438993637228     3.04035957482536
H   33   1     2.05186651577887     4.68410571893416     4.77402266739321
H   34   1     2.83712330958063     5.12208376337235     1.87805706574587
H   35   1     3.26582090902109     2.38241174030942     3.19051154350492
N   36   7    -1.41052748417173     4.90769055508820    -1.34790762958202
H   37   1    -1.75003190025884     6.78104976168840    -0.99229329828299
H   38   1    -2.65834387984003     4.49309409198925    -2.75785496783350
H   39   1     0.32278033988471     4.89894112313146    -2.18344058692784
N   40   7    -3.37919124841212     5.33499353664873     3.94750181393545
H   41   1    -2.26357064378777     6.83195331430581     4.45515784003860
H   42   1    -4.15358022727151     4.76963661305810     5.62761006813313
H   43   1    -4.86681766873998     6.18449345978121     3.04686590187224
[GTO]
1 0
 s    6 1.00
          51528.086349  0.0017695545768669
          7737.2103487   0.013556436258096
           1760.374847   0.067162645785071
          496.87706544    0.23295905918518
          161.46520598    0.47040576982722
          55.466352268    0.35733072606876
 s    3 1.00
          107.54732999   -0.10605255446629
          12.408671897    0.62543981484169
          5.0423628826    0.44878820793655
 s    3 1.00
          8.5461640165   -0.21819012081133
          1.3900441221    0.70422525667731
         0.56066602876    0.42488555412558
 s    1 1.00
        0.071483705972                   1
 s    1 1.00
        0.028250687604                   1
 p    5 1.00
          640.48536096  0.0093555063746755
          150.69711194   0.068993338492216
          47.503755296     0.2634118959318
          16.934120165    0.51034501651775
           6.240968059    0.33195512953954
 p    3 1.00
          3.0885463206    0.32917682676976
          1.1791047769    0.55491385190365
         0.43369774432    0.23818412855984
 p    1 1.00
              0.120675                   1
 d    4 1.00
          27.559479426   0.036950140313562
          7.4687020327    0.18821519783039
          2.4345903574    0.44641244239929
         0.78244754808     0.5681617303244
 d    1 1.00
         0.21995774311                   1
 f    1 1.00
                 1.147                   1

2 0
 s    6 1.00
          51528.086349  0.0017695545768669
          7737.2103487   0.013556436258096
           1760.374847   0.067162645785071
          496.87706544    0.23295905918518
          161.46520598    0.47040576982722
          55.466352268    0.35733072606876
 s    3 1.00
          107.54732999   -0.10605255446629
          12.408671897    0.62543981484169
          5.0423628826    0.44878820793655
 s    3 1.00
          8.5461640165   -0.21819012081133
          1.3900441221    0.70422525667731
         0.56066602876    0.42488555412558
 s    1 1.00
        0.071483705972                   1
 s    1 1.00
        0.028250687604                   1
 p    5 1.00
          640.48536096  0.0093555063746755
          150.69711194   0.068993338492216
          47.503755296     0.2634118959318
          16.934120165    0.51034501651775
           6.240968059    0.33195512953954
 p    3 1.00
          3.0885463206    0.32917682676976
          1.1791047769    0.55491385190365
         0.43369774432    0.23818412855984
 p    1 1.00
              0.120675                   1
 d    4 1.00
          27.559479426   0.036950140313562
          7.4687020327    0.18821519783039
          2.4345903574    0.44641244239929
         0.78244754808     0.5681617303244
 d    1 1.00
         0.21995774311                   1
 f    1 1.00
                 1.147                   1

3 0
 s    5 1.00
          2266.1767785  -0.0053893503921743
          340.87010191   -0.04023472138896
          77.363135167   -0.18008184205526
           21.47964494   -0.46828857657651
          6.6589433124   -0.44692617160187
 s    1 1.00
         0.80975975668                   1
 s    1 1.00
         0.25530772234                   1
 p    3 1.00
          17.721504317   0.062630248763161
           3.863550544    0.33331138482352
          1.0480920883    0.74148638308122
 p    1 1.00
         0.27641544411                   1
 d    1 1.00
                   1.2                   1

4 0
 s    5 1.00
          1712.8415853  -0.0054477995804909
          257.64812677  -0.040627174632423
          58.458245853   -0.18111962250584
          16.198367905   -0.46843975563173
          5.0052600809   -0.44616846289231
 s    1 1.00
         0.58731856571                   1
 s    1 1.00
         0.18764592253                   1
 p    3 1.00
          13.571470233  -0.058848116969522
          2.9257372874   -0.32024624762471
         0.79927750754   -0.75328226520436
 p    1 1.00
         0.21954348034                   1
 d    1 1.00
                     1                   1

5 0
 s    3 1.00
             13.010701   0.033485484812989
             1.9622572    0.23472187088125
            0.44453796    0.81377028525955
 s    1 1.00
            0.12194962                   1
 p    1 1.00
                   0.8                   1

6 0
 s    3 1.00
             13.010701   0.033485484812989
             1.9622572    0.23472187088125
            0.44453796    0.81377028525955
 s    1 1.00
            0.12194962                   1
 p    1 1.00
                   0.8                   1

7 0
 s    3 1.00
             13.010701   0.033485484812989
             1.9622572    0.23472187088125
            0.44453796    0.81377028525955
 s    1 1.00
            0.12194962                   1
 p    1 1.00
                   0.8                   1

8 0
 s    5 1.00
          1712.8415853  -0.0054477995804909
          257.64812677  -0.040627174632423
          58.458245853   -0.18111962250584
          16.198367905   -0.46843975563173
          5.0052600809   -0.44616846289231
 s    1 1.00
         0.58731856571                   1
 s    1 1.00
         0.18764592253                   1
 p    3 1.00
          13.571470233  -0.058848116969522
          2.9257372874   -0.32024624762471
         0.79927750754   -0.75328226520436
 p    1 1.00
         0.21954348034                   1
 d    1 1.00
                     1                   1

9 0
 s    3 1.00
             13.010701   0.033485484812989
             1.9622572    0.23472187088125
            0.44453796    0.81377028525955
 s    1 1.00
            0.12194962                   1
 p    1 1.00
                   0.8                   1

10 0
 s    3 1.00
             13.010701   0.033485484812989
             1.9622572    0.23472187088125
            0.44453796    0.81377028525955
 s    1 1.00
            0.12194962                   1
 p    1 1.00
                   0.8                   1

11 0
 s    3 1.00
             13.010701   0.033485484812989
             1.9622572    0.23472187088125
            0.44453796    0.81377028525955
 s    1 1.00
            0.12194962                   1
 p    1 1.00
                   0.8                   1

12 0
 s    5 1.00
          1712.8415853  -0.0054477995804909
          257.64812677  -0.040627174632423
          58.458245853   -0.18111962250584
          16.198367905   -0.46843975563173
          5.0052600809   -0.44616846289231
 s    1 1.00
         0.58731856571                   1
 s    1 1.00
         0.18764592253                   1
 p    3 1.00
          13.571470233  -0.058848116969522
          2.9257372874   -0.32024624762471
         0.79927750754   -0.75328226520436
 p    1 1.00
         0.21954348034                   1
 d    1 1.00
                     1                   1

13 0
 s    3 1.00
             13.010701   0.033485484812989
             1.9622572    0.23472187088125
            0.44453796    0.81377028525955
 s    1 1.00
            0.12194962                   1
 p    1 1.00
                   0.8                   1

14 0
 s    3 1.00
             13.010701   0.033485484812989
             1.9622572    0.23472187088125
            0.44453796    0.81377028525955
 s    1 1.00
            0.12194962                   1
 p    1 1.00
                   0.8                   1

15 0
 s    3 1.00
             13.010701   0.033485484812989
             1.9622572    0.23472187088125
            0.44453796    0.81377028525955
 s    1 1.00
            0.12194962                   1
 p    1 1.00
                   0.8                   1

16 0
 s    5 1.00
          1712.8415853  -0.0054477995804909
          257.64812677  -0.040627174632423
          58.458245853   -0.18111962250584
          16.198367905   -0.46843975563173
          5.0052600809   -0.44616846289231
 s    1 1.00
         0.58731856571                   1
 s    1 1.00
         0.18764592253                   1
 p    3 1.00
          13.571470233  -0.058848116969522
          2.9257372874   -0.32024624762471
         0.79927750754   -0.75328226520436
 p    1 1.00
         0.21954348034                   1
 d    1 1.00
                     1                   1

17 0
 s    3 1.00
             13.010701   0.033485484812989
             1.9622572    0.23472187088125
            0.44453796    0.81377028525955
 s    1 1.00
            0.12194962                   1
 p    1 1.00
                   0.8                   1

18 0
 s    3 1.00
             13.010701   0.033485484812989
             1.9622572    0.23472187088125
            0.44453796    0.81377028525955
 s    1 1.00
            0.12194962                   1
 p    1 1.00
                   0.8                   1

19 0
 s    3 1.00
             13.010701   0.033485484812989
             1.9622572    0.23472187088125
            0.44453796    0.81377028525955
 s    1 1.00
            0.12194962                   1
 p    1 1.00
                   0.8                   1

20 0
 s    5 1.00
          1712.8415853  -0.0054477995804909
          257.64812677  -0.040627174632423
          58.458245853   -0.18111962250584
          16.198367905   -0.46843975563173
          5.0052600809   -0.44616846289231
 s    1 1.00
         0.58731856571                   1
 s    1 1.00
         0.18764592253                   1
 p    3 1.00
          13.571470233  -0.058848116969522
          2.9257372874   -0.32024624762471
         0.79927750754   -0.75328226520436
 p    1 1.00
         0.21954348034                   1
 d    1 1.00
                     1                   1

21 0
 s    3 1.00
             13.010701   0.033485484812989
             1.9622572    0.23472187088125
            0.44453796    0.81377028525955
 s    1 1.00
            0.12194962                   1
 p    1 1.00
                   0.8                   1

22 0
 s    3 1.00
             13.010701   0.033485484812989
             1.9622572    0.23472187088125
            0.44453796    0.81377028525955
 s    1 1.00
            0.12194962                   1
 p    1 1.00
                   0.8                   1

23 0
 s    3 1.00
             13.010701   0.033485484812989
             1.9622572    0.23472187088125
            0.44453796    0.81377028525955
 s    1 1.00
            0.12194962                   1
 p    1 1.00
                   0.8                   1

24 0
 s    5 1.00
          1712.8415853  -0.0054477995804909
          257.64812677  -0.040627174632423
          58.458245853   -0.18111962250584
          16.198367905   -0.46843975563173
          5.0052600809   -0.44616846289231
 s    1 1.00
         0.58731856571                   1
 s    1 1.00
         0.18764592253                   1
 p    3 1.00
          13.571470233  -0.058848116969522
          2.9257372874   -0.32024624762471
         0.79927750754   -0.75328226520436
 p    1 1.00
         0.21954348034                   1
 d    1 1.00
                     1                   1

25 0
 s    3 1.00
             13.010701   0.033485484812989
             1.9622572    0.23472187088125
            0.44453796    0.81377028525955
 s    1 1.00
            0.12194962                   1
 p    1 1.00
                   0.8                   1

26 0
 s    3 1.00
             13.010701   0.033485484812989
             1.9622572    0.23472187088125
            0.44453796    0.81377028525955
 s    1 1.00
            0.12194962                   1
 p    1 1.00
                   0.8                   1

27 0
 s    3 1.00
             13.010701   0.033485484812989
             1.9622572    0.23472187088125
            0.44453796    0.81377028525955
 s    1 1.00
            0.12194962                   1
 p    1 1.00
                   0.8                   1

28 0
 s    5 1.00
          1712.8415853  -0.0054477995804909
          257.64812677  -0.040627174632423
          58.458245853   -0.18111962250584
          16.198367905   -0.46843975563173
          5.0052600809   -0.44616846289231
 s    1 1.00
         0.58731856571                   1
 s    1 1.00
         0.18764592253                   1
 p    3 1.00
          13.571470233  -0.058848116969522
          2.9257372874   -0.32024624762471
         0.79927750754   -0.75328226520436
 p    1 1.00
         0.21954348034                   1
 d    1 1.00
                     1                   1

29 0
 s    3 1.00
             13.010701   0.033485484812989
             1.9622572    0.23472187088125
            0.44453796    0.81377028525955
 s    1 1.00
            0.12194962                   1
 p    1 1.00
                   0.8                   1

30 0
 s    3 1.00
             13.010701   0.033485484812989
             1.9622572    0.23472187088125
            0.44453796    0.81377028525955
 s    1 1.00
            0.12194962                   1
 p    1 1.00
                   0.8                   1

31 0
 s    3 1.00
             13.010701   0.033485484812989
             1.9622572    0.23472187088125
            0.44453796    0.81377028525955
 s    1 1.00
            0.12194962                   1
 p    1 1.00
                   0.8                   1

32 0
 s    5 1.00
          1712.8415853  -0.0054477995804909
          257.64812677  -0.040627174632423
          58.458245853   -0.18111962250584
          16.198367905   -0.46843975563173
          5.0052600809   -0.44616846289231
 s    1 1.00
         0.58731856571                   1
 s    1 1.00
         0.18764592253                   1
 p    3 1.00
          13.571470233  -0.058848116969522
          2.9257372874   -0.32024624762471
         0.79927750754   -0.75328226520436
 p    1 1.00
         0.21954348034                   1
 d    1 1.00
                     1                   1

33 0
 s    3 1.00
             13.010701   0.033485484812989
             1.9622572    0.23472187088125
            0.44453796    0.81377028525955
 s    1 1.00
            0.12194962                   1
 p    1 1.00
                   0.8                   1

34 0
 s    3 1.00
             13.010701   0.033485484812989
             1.9622572    0.23472187088125
            0.44453796    0.81377028525955
 s    1 1.00
            0.12194962                   1
 p    1 1.00
                   0.8                   1

35 0
 s    3 1.00
             13.010701   0.033485484812989
             1.9622572    0.23472187088125
            0.44453796    0.81377028525955
 s    1 1.00
            0.12194962                   1
 p    1 1.00
                   0.8                   1

36 0
 s    5 1.00
          1712.8415853  -0.0054477995804909
          257.64812677  -0.040627174632423
          58.458245853   -0.18111962250584
          16.198367905   -0.46843975563173
          5.0052600809   -0.44616846289231
 s    1 1.00
         0.58731856571                   1
 s    1 1.00
         0.18764592253                   1
 p    3 1.00
          13.571470233  -0.058848116969522
          2.9257372874   -0.32024624762471
         0.79927750754   -0.75328226520436
 p    1 1.00
         0.21954348034                   1
 d    1 1.00
                     1                   1

37 0
 s    3 1.00
             13.010701   0.033485484812989
             1.9622572    0.23472187088125
            0.44453796    0.81377028525955
 s    1 1.00
            0.12194962                   1
 p    1 1.00
                   0.8                   1

38 0
 s    3 1.00
             13.010701   0.033485484812989
             1.9622572    0.23472187088125
            0.44453796    0.81377028525955
 s    1 1.00
            0.12194962                   1
 p    1 1.00
                   0.8                   1

39 0
 s    3 1.00
             13.010701   0.033485484812989
             1.9622572    0.23472187088125
            0.44453796    0.81377028525955
 s    1 1.00
            0.12194962                   1
 p    1 1.00
                   0.8                   1

40 0
 s    5 1.00
          1712.8415853  -0.0054477995804909
          257.64812677  -0.040627174632423
          58.458245853   -0.18111962250584
          16.198367905   -0.46843975563173
          5.0052600809   -0.44616846289231
 s    1 1.00
         0.58731856571                   1
 s    1 1.00
         0.18764592253                   1
 p    3 1.00
          13.571470233  -0.058848116969522
          2.9257372874   -0.32024624762471
         0.79927750754   -0.75328226520436
 p    1 1.00
         0.21954348034                   1
 d    1 1.00
                     1                   1

41 0
 s    3 1.00
             13.010701   0.033485484812989
             1.9622572    0.23472187088125
            0.44453796    0.81377028525955
 s    1 1.00
            0.12194962                   1
 p    1 1.00
                   0.8                   1

42 0
 s    3 1.00
             13.010701   0.033485484812989
             1.9622572    0.23472187088125
            0.44453796    0.81377028525955
 s    1 1.00
            0.12194962                   1
 p    1 1.00
                   0.8                   1

43 0
 s    3 1.00
             13.010701   0.033485484812989
             1.9622572    0.23472187088125
            0.44453796    0.81377028525955
 s    1 1.00
            0.12194962                   1
 p    1 1.00
                   0.8                   1

[5d]
[7f]
[9g]

[MO]
 Sym= A
 Ene=               0
 Spin= Alpha
 Occup=    1.00000
   1     0.012064196251419
   2    -0.024878109723435
   3      0.21949194509328
   4    -0.048212708771012
   5    -0.0017407966176522
   6     0.021687943983483
   7    -0.035097065926424
   8    -0.025353746249619
   9     -0.11244831496547
  10      0.18124394433367
  11      0.13138972445261
  12     0.015444875887368
  13    -0.023817666578638
  14    -0.018346278538797
  15     0.052908973342978
  16     0.030716317513886
  17     -0.14499376569669
  18    -0.010438104588784
  19     0.052839877621516
  20     0.036084441173377
  21    0.0078328120879989
  22    -0.083675808606171
  23    -0.016753654640852
  24     0.019031607177853
  25    0.0030524155190497
  26    0.0010633442383541
  27    -0.0012764123126371
  28    0.0023636792128557
  29    0.0052356527557348
  30    -0.0039774101559989
  31    -0.00029731254595743
  32    -0.011434746896668
  33     0.027102952684589
  34     -0.20247804679268
  35     0.033281809329115
  36    0.0095887354597572
  37     0.026081886641375
  38     -0.04204379896005
  39    -0.030493127353277
  40     -0.13530698101399
  41      0.21736938638886
  42       0.1581255495174
  43    0.0025331407019164
  44    -0.0037023915428186
  45    -0.0038390634616412
  46    -0.049152425413093
  47    -0.018279043938452
  48      0.12264860795925
  49      0.01751833260146
  50    -0.035761019876784
  51    -0.033163405557625
  52    0.0014369546322813
  53     0.067036709775031
  54     0.022089898378253
  55    -0.0061237030907682
  56    0.0012299584401896
  57    0.00057033186123809
  58    -0.00051075646542024
  59    0.0010004360142549
  60    0.0023527038136928
  61    -0.0019033504104027
  62    -4.131555073807e-05
  63    -0.0089810269160233
  64     -0.18196672182367
  65     -0.13694788288586
  66     -0.10867845262913
  67       0.1708098744698
  68      0.12528922713578
  69     -0.09547923245962
  70      0.15006355750784
  71      0.11016326346982
  72    0.00037573807977918
  73     0.001985112048689
  74    -0.0031554260920294
  75    0.0012662015128884
  76    0.0026892440565122
  77    -0.013549717569283
  78    -0.042074430929916
  79    -0.028905786586543
  80    -0.041908327582848
  81     -0.03898426552437
  82    -0.028837830836498
  83     0.025661173886549
  84     0.027025295860693
  85     0.019196031822191
  86    0.00017353682117323
  87    0.0011750857803961
  88    -0.00052327669217489
  89    -0.0014774000505318
  90    0.00097609195754504
  91    -0.012108100342053
  92     0.001785543197846
  93    0.0021190318893737
  94    0.0012880437225007
  95    0.00059232056283204
  96    0.0088169695082881
  97    0.0077639534148104
  98    0.0012784408236361
  99    0.00095799684274805
 100    -9.258700069118e-05
 101     0.017152523457704
 102     0.010761417652693
 103    0.0020494153042632
 104    -0.00087007753653534
 105    0.00034667780389576
 106     0.039896624734304
 107     0.093975675520131
 108     0.085921342221599
 109     0.014246417707532
 110     0.079221698002959
 111     -0.13262898025947
 112    -0.0072831914288732
 113    -0.062228556581419
 114     0.093935728606408
 115    -0.0013502669658912
 116    0.00024375549409502
 117    -0.0012197046874995
 118    -0.00029589012110658
 119    -0.00088311618922826
 120    0.0059673200142666
 121    -0.0053374332060071
 122    3.5199873540034e-05
 123    -0.0027653554199409
 124    0.0035626295756523
 125    -0.032966269954028
 126     -0.01242643474084
 127    -0.0010406951210872
 128    -0.0042657610741777
 129    0.00061579463376004
 130     -0.01781320980191
 131    -0.0093243285838801
 132    0.0016297042299419
 133    -0.0012351263339896
 134    0.0042979925979629
 135     0.038522133481498
 136     0.090175972000172
 137     0.083046971949245
 138    0.0014033936351517
 139     -0.10543493163294
 140      0.10891962498701
 141    0.0019569119619035
 142     0.073207963921465
 143    -0.081552461536548
 144    0.0011325402191336
 145    -0.00048073861166807
 146    -0.00047010849334697
 147    0.0015003354388033
 148    0.0005183083954615
 149    -0.033565080022492
 150    -0.012168734524887
 151    0.0003762028342294
 152    -0.00062198487820523
 153    -0.0043232474603806
 154    -0.00059805804225191
 155    -0.0060946209128315
 156    -0.00032755796794157
 157    0.0030046018596055
 158    -0.0032581146677112
 159    -0.012833752886212
 160    -0.0088136709254439
 161    0.0013383701450973
 162    0.0039434226587572
 163    -0.002236935447508
 164    -0.014295320851704
 165    -0.044102153106607
 166    -0.031354492405691
 167     0.064765810492315
 168    0.0024579991333284
 169      0.00776035312013
 170    -0.043354544838713
 171    0.00034120580502434
 172    -0.004014875751145
 173    -0.00094120347317691
 174    -6.7940344005714e-05
 175    -0.0015238918530674
 176    0.00054845995492994
 177    -0.00068252892434469
 178    0.0063229885704003
 179     0.006565714054256
 180    -0.0014758919598431
 181    -5.5717987130831e-05
 182    -0.00069974306664244
 183    -0.010046270617865
 184    0.0022161777763985
 185    -0.002311681747669
 186    -0.00024477767566625
 187    -0.00084409235666526
 188     0.016819109047058
 189      0.01176778622193
 190    -0.00087083924984019
 191    -0.0020352790097806
 192    -0.00089140950732543
 193    -0.014035119999148
 194    -0.055389930928131
 195    -0.021808989588793
 196    -0.017772880684118
 197      0.02830247960581
 198      0.02074088549703
 199    0.0079833325440274
 200    -0.014824067702192
 201    -0.0097582234770092
 202    0.00024486666701449
 203    0.00025873507013549
 204    -0.00082918276129797
 205    2.1416959061437e-05
 206    0.00040335983873931
 207    -0.004126230211649
 208    0.0031705405423177
 209    0.00077969978277603
 210    -0.00048934887563952
 211    -0.0014529990884523
 212    -0.0059984747010255
 213    0.0022735450718117
 214    0.00057400085009634
 215    -0.0018583205642866
 216    -0.00091408022679507
 217    -0.005486120924851
 218    0.0028911296421926
 219    0.0010379676457443
 220    -0.0016535836006511
 221    -0.00025035820189889
 222      0.01795814410332
 223     0.070978959332135
 224     0.043579031365414
 225    -0.040986325690417
 226    -0.048556991723921
 227    -0.035272373319586
 228     0.028328384439357
 229     0.031734917842508
 230     0.022403347330932
 231    0.00016606036773286
 232    -0.0011667505617565
 233    0.00043322854396968
 234    0.0015139119930656
 235    -0.00081430796234733
 236    -0.016470127014487
 237    -0.012490847305387
 238    0.0017824933904289
 239    -0.0002088146773583
 240    0.00071319430700047
 241    -0.00045654742330586
 242    -0.0084140017825825
 243    0.0015210997232275
 244    0.0012269231277272
 245    0.0012517357120547
 246      0.02609065895805
 247    -0.0020756904526789
 248    0.0039228274578033
 249    0.0012081407763829
 250    -0.00041877089179224
 251    -0.034028914084194
 252     -0.06151950554667
 253     -0.06785363236238
 254     0.019332373163319
 255     0.065213270304868
 256     -0.12981141375224
 257    -0.0089370699793386
 258    -0.053640913453857
 259      0.08826876913178
 260    0.0013553005759348
 261    -0.00022775354504307
 262    0.0013186039636895
 263    7.5864827729473e-05
 264    0.00093398055898277
 265     0.047089348541734
 266      0.01213753312027
 267    -0.0010517645682783
 268    -0.0045865738880439
 269    -0.0015417135435577
 270    -0.0053234570675435
 271     0.003437218326706
 272    -0.00038999507612238
 273    -0.0020412575164937
 274     0.003953401111522
 275     0.023938624667406
 276    0.0077399704181748
 277    0.0020822796163213
 278    4.2566022654386e-05
 279    0.0042257778128976
 280     0.018669180722576
 281     0.072852769761411
 282     0.046269038722733
 283     0.073670128403371
 284    -0.0042020094411618
 285    0.0038585217636034
 286    -0.049726861967633
 287    0.0014855506080757
 288    -0.0037795157332503
 289    0.0011326508374031
 290    -3.2246676829434e-05
 291    0.0012984634118332
 292    -0.00042214324235043
 293    0.00080558967582114
 294     0.023629397434264
 295    -0.0023841684225755
 296     -0.00284550902501
 297    -0.00096066102424811
 298    -0.0026653361466138
 299    0.0026380153161041
 300    -0.0072548653432625
 301    -0.0024900609690459
 302    -0.00051209051967539
 303    0.0002393447542548
 304    -0.016805710973099
 305     -0.01361098705269
 306    -0.0012140797781483
 307    -0.0014419697823661
 308    -0.00050806036688961
 309    -0.032550113924253
 310    -0.057352818359889
 311    -0.065050534563767
 312    0.0070393454264681
 313     -0.10619181891634
 314      0.09541917480467
 315    -0.00045841704367184
 316     0.070048249824405
 317    -0.072402936393429
 318    -0.0010146972202997
 319    0.00040938346388752
 320    0.00056199902145702
 321    -0.0015020418178385
 322    -0.00059826467086749
 323     0.047886801501287
 324     0.011724370739191
 325    0.00079111666593066
 326    -0.0027922859936973
 327    -0.0040605507232325
 328     0.017289252295071
 329    0.0069922178058401
 330    0.0013493471544955
 331    0.0042238878780673
 332    -0.0011114352539647
 333     0.003464482102398
 334     0.004371336468554
 335    -0.00099707646518387
 336    0.0034236521330135
 337    -0.0025384234945018
 338     0.024869440094455
 339     0.099545710240527
 340     0.057220246947396
 341    -0.027830628248852
 342     0.044144270643083
 343     0.032470089844736
 344     0.020764958595347
 345    -0.034763776761898