[Molden Format]
made by pyscf v[2.1.1]
[Atoms] (AU)
Cr   1   24     1.56143912275337    -2.46507591990239    -1.82404491365355
Cr   2   24    -1.56139565905251     2.46513072196000     1.82399011159594
O   3   8     0.00002078698737     0.00002834589187    -0.00002645616574
N   4   7     5.12832174930954    -1.10581670549011    -0.60767356069801
H   5   1     6.65216855026694    -1.66292686427314    -1.66487895135981
H   6   1     5.63710405218294    -1.59213394419468     1.18765885421890
H   7   1     5.20084187906585     0.81566059741989    -0.65509245834172
N   8   7     1.71230729763415    -0.02251608677419    -4.99594076510539
H   9   1     0.29795878723855     1.27247165241550    -4.90823668593820
H   10   1     1.50271021425414    -0.85583806455427    -6.73026148236459
H   11   1     3.34039895052705     0.99863710888315    -5.18656310846864
N   12   7     1.41057094787259    -4.90763575303059     1.34785282752440
H   13   1     1.64193389675534    -6.79355407945465     0.97314659318890
H   14   1    -0.29048681014202    -4.81040367474334     2.24006056107205
H   15   1     2.72468082571676    -4.56691435331926     2.71738081369757
N   16   7    -2.00544350380280    -3.82433513431467    -3.04041437688297
H   17   1    -2.87205678671934    -5.05516478184926    -1.83221042023780
H   18   1    -2.03637832046193    -4.76397121413665    -4.73247136936628
H   19   1    -3.24475802163669    -2.37551046050250    -3.28123540501917
N   20   7     3.37923471211299    -5.33493873459111    -3.94755661599306
H   21   1     4.17102617885350    -4.76109883042731    -5.61685374703210
H   22   1     2.26176595533881    -6.82326057413281    -4.47610923358166
H   23   1     4.85383336053810    -6.19899521806112    -3.03922195969837
N   24   7    -5.12827828560868     1.10587339727385     0.60762064836653
H   25   1    -5.15408816501799    -0.81544705836782     0.54662784797006
H   26   1    -5.69743166898356     1.68113626520945    -1.14337690194197
H   27   1    -6.63528195761783     1.56841410187914     1.73267665553083
N   28   7    -1.71226383393328     0.02257088883181     4.99588785277390
H   29   1    -1.62991523860311     0.86667375415253     6.73575491620870
H   30   1    -0.22416876152653    -1.19157625647512     4.98456461383551
H   31   1    -3.28782110056328    -1.08746368536834     5.11339858210385
N   32   7     2.00548696750367     3.82438993637228     3.04035957482536
H   33   1     2.05186651577887     4.68410571893416     4.77402266739321
H   34   1     2.83712330958063     5.12208376337235     1.87805706574587
H   35   1     3.26582090902109     2.38241174030942     3.19051154350492
N   36   7    -1.41052748417173     4.90769055508820    -1.34790762958202
H   37   1    -1.75003190025884     6.78104976168840    -0.99229329828299
H   38   1    -2.65834387984003     4.49309409198925    -2.75785496783350
H   39   1     0.32278033988471     4.89894112313146    -2.18344058692784
N   40   7    -3.37919124841212     5.33499353664873     3.94750181393545
H   41   1    -2.26357064378777     6.83195331430581     4.45515784003860
H   42   1    -4.15358022727151     4.76963661305810     5.62761006813313
H   43   1    -4.86681766873998     6.18449345978121     3.04686590187224
[GTO]
1 0
 s    6 1.00
          51528.086349  0.0017695545768669
          7737.2103487   0.013556436258096
           1760.374847   0.067162645785071
          496.87706544    0.23295905918518
          161.46520598    0.47040576982722
          55.466352268    0.35733072606876
 s    3 1.00
          107.54732999   -0.10605255446629
          12.408671897    0.62543981484169
          5.0423628826    0.44878820793655
 s    3 1.00
          8.5461640165   -0.21819012081133
          1.3900441221    0.70422525667731
         0.56066602876    0.42488555412558
 s    1 1.00
        0.071483705972                   1
 s    1 1.00
        0.028250687604                   1
 p    5 1.00
          640.48536096  0.0093555063746755
          150.69711194   0.068993338492216
          47.503755296     0.2634118959318
          16.934120165    0.51034501651775
           6.240968059    0.33195512953954
 p    3 1.00
          3.0885463206    0.32917682676976
          1.1791047769    0.55491385190365
         0.43369774432    0.23818412855984
 p    1 1.00
              0.120675                   1
 d    4 1.00
          27.559479426   0.036950140313562
          7.4687020327    0.18821519783039
          2.4345903574    0.44641244239929
         0.78244754808     0.5681617303244
 d    1 1.00
         0.21995774311                   1
 f    1 1.00
                 1.147                   1

2 0
 s    6 1.00
          51528.086349  0.0017695545768669
          7737.2103487   0.013556436258096
           1760.374847   0.067162645785071
          496.87706544    0.23295905918518
          161.46520598    0.47040576982722
          55.466352268    0.35733072606876
 s    3 1.00
          107.54732999   -0.10605255446629
          12.408671897    0.62543981484169
          5.0423628826    0.44878820793655
 s    3 1.00
          8.5461640165   -0.21819012081133
          1.3900441221    0.70422525667731
         0.56066602876    0.42488555412558
 s    1 1.00
        0.071483705972                   1
 s    1 1.00
        0.028250687604                   1
 p    5 1.00
          640.48536096  0.0093555063746755
          150.69711194   0.068993338492216
          47.503755296     0.2634118959318
          16.934120165    0.51034501651775
           6.240968059    0.33195512953954
 p    3 1.00
          3.0885463206    0.32917682676976
          1.1791047769    0.55491385190365
         0.43369774432    0.23818412855984
 p    1 1.00
              0.120675                   1
 d    4 1.00
          27.559479426   0.036950140313562
          7.4687020327    0.18821519783039
          2.4345903574    0.44641244239929
         0.78244754808     0.5681617303244
 d    1 1.00
         0.21995774311                   1
 f    1 1.00
                 1.147                   1

3 0
 s    5 1.00
          2266.1767785  -0.0053893503921743
          340.87010191   -0.04023472138896
          77.363135167   -0.18008184205526
           21.47964494   -0.46828857657651
          6.6589433124   -0.44692617160187
 s    1 1.00
         0.80975975668                   1
 s    1 1.00
         0.25530772234                   1
 p    3 1.00
          17.721504317   0.062630248763161
           3.863550544    0.33331138482352
          1.0480920883    0.74148638308122
 p    1 1.00
         0.27641544411                   1
 d    1 1.00
                   1.2                   1

4 0
 s    5 1.00
          1712.8415853  -0.0054477995804909
          257.64812677  -0.040627174632423
          58.458245853   -0.18111962250584
          16.198367905   -0.46843975563173
          5.0052600809   -0.44616846289231
 s    1 1.00
         0.58731856571                   1
 s    1 1.00
         0.18764592253                   1
 p    3 1.00
          13.571470233  -0.058848116969522
          2.9257372874   -0.32024624762471
         0.79927750754   -0.75328226520436
 p    1 1.00
         0.21954348034                   1
 d    1 1.00
                     1                   1

5 0
 s    3 1.00
             13.010701   0.033485484812989
             1.9622572    0.23472187088125
            0.44453796    0.81377028525955
 s    1 1.00
            0.12194962                   1
 p    1 1.00
                   0.8                   1

6 0
 s    3 1.00
             13.010701   0.033485484812989
             1.9622572    0.23472187088125
            0.44453796    0.81377028525955
 s    1 1.00
            0.12194962                   1
 p    1 1.00
                   0.8                   1

7 0
 s    3 1.00
             13.010701   0.033485484812989
             1.9622572    0.23472187088125
            0.44453796    0.81377028525955
 s    1 1.00
            0.12194962                   1
 p    1 1.00
                   0.8                   1

8 0
 s    5 1.00
          1712.8415853  -0.0054477995804909
          257.64812677  -0.040627174632423
          58.458245853   -0.18111962250584
          16.198367905   -0.46843975563173
          5.0052600809   -0.44616846289231
 s    1 1.00
         0.58731856571                   1
 s    1 1.00
         0.18764592253                   1
 p    3 1.00
          13.571470233  -0.058848116969522
          2.9257372874   -0.32024624762471
         0.79927750754   -0.75328226520436
 p    1 1.00
         0.21954348034                   1
 d    1 1.00
                     1                   1

9 0
 s    3 1.00
             13.010701   0.033485484812989
             1.9622572    0.23472187088125
            0.44453796    0.81377028525955
 s    1 1.00
            0.12194962                   1
 p    1 1.00
                   0.8                   1

10 0
 s    3 1.00
             13.010701   0.033485484812989
             1.9622572    0.23472187088125
            0.44453796    0.81377028525955
 s    1 1.00
            0.12194962                   1
 p    1 1.00
                   0.8                   1

11 0
 s    3 1.00
             13.010701   0.033485484812989
             1.9622572    0.23472187088125
            0.44453796    0.81377028525955
 s    1 1.00
            0.12194962                   1
 p    1 1.00
                   0.8                   1

12 0
 s    5 1.00
          1712.8415853  -0.0054477995804909
          257.64812677  -0.040627174632423
          58.458245853   -0.18111962250584
          16.198367905   -0.46843975563173
          5.0052600809   -0.44616846289231
 s    1 1.00
         0.58731856571                   1
 s    1 1.00
         0.18764592253                   1
 p    3 1.00
          13.571470233  -0.058848116969522
          2.9257372874   -0.32024624762471
         0.79927750754   -0.75328226520436
 p    1 1.00
         0.21954348034                   1
 d    1 1.00
                     1                   1

13 0
 s    3 1.00
             13.010701   0.033485484812989
             1.9622572    0.23472187088125
            0.44453796    0.81377028525955
 s    1 1.00
            0.12194962                   1
 p    1 1.00
                   0.8                   1

14 0
 s    3 1.00
             13.010701   0.033485484812989
             1.9622572    0.23472187088125
            0.44453796    0.81377028525955
 s    1 1.00
            0.12194962                   1
 p    1 1.00
                   0.8                   1

15 0
 s    3 1.00
             13.010701   0.033485484812989
             1.9622572    0.23472187088125
            0.44453796    0.81377028525955
 s    1 1.00
            0.12194962                   1
 p    1 1.00
                   0.8                   1

16 0
 s    5 1.00
          1712.8415853  -0.0054477995804909
          257.64812677  -0.040627174632423
          58.458245853   -0.18111962250584
          16.198367905   -0.46843975563173
          5.0052600809   -0.44616846289231
 s    1 1.00
         0.58731856571                   1
 s    1 1.00
         0.18764592253                   1
 p    3 1.00
          13.571470233  -0.058848116969522
          2.9257372874   -0.32024624762471
         0.79927750754   -0.75328226520436
 p    1 1.00
         0.21954348034                   1
 d    1 1.00
                     1                   1

17 0
 s    3 1.00
             13.010701   0.033485484812989
             1.9622572    0.23472187088125
            0.44453796    0.81377028525955
 s    1 1.00
            0.12194962                   1
 p    1 1.00
                   0.8                   1

18 0
 s    3 1.00
             13.010701   0.033485484812989
             1.9622572    0.23472187088125
            0.44453796    0.81377028525955
 s    1 1.00
            0.12194962                   1
 p    1 1.00
                   0.8                   1

19 0
 s    3 1.00
             13.010701   0.033485484812989
             1.9622572    0.23472187088125
            0.44453796    0.81377028525955
 s    1 1.00
            0.12194962                   1
 p    1 1.00
                   0.8                   1

20 0
 s    5 1.00
          1712.8415853  -0.0054477995804909
          257.64812677  -0.040627174632423
          58.458245853   -0.18111962250584
          16.198367905   -0.46843975563173
          5.0052600809   -0.44616846289231
 s    1 1.00
         0.58731856571                   1
 s    1 1.00
         0.18764592253                   1
 p    3 1.00
          13.571470233  -0.058848116969522
          2.9257372874   -0.32024624762471
         0.79927750754   -0.75328226520436
 p    1 1.00
         0.21954348034                   1
 d    1 1.00
                     1                   1

21 0
 s    3 1.00
             13.010701   0.033485484812989
             1.9622572    0.23472187088125
            0.44453796    0.81377028525955
 s    1 1.00
            0.12194962                   1
 p    1 1.00
                   0.8                   1

22 0
 s    3 1.00
             13.010701   0.033485484812989
             1.9622572    0.23472187088125
            0.44453796    0.81377028525955
 s    1 1.00
            0.12194962                   1
 p    1 1.00
                   0.8                   1

23 0
 s    3 1.00
             13.010701   0.033485484812989
             1.9622572    0.23472187088125
            0.44453796    0.81377028525955
 s    1 1.00
            0.12194962                   1
 p    1 1.00
                   0.8                   1

24 0
 s    5 1.00
          1712.8415853  -0.0054477995804909
          257.64812677  -0.040627174632423
          58.458245853   -0.18111962250584
          16.198367905   -0.46843975563173
          5.0052600809   -0.44616846289231
 s    1 1.00
         0.58731856571                   1
 s    1 1.00
         0.18764592253                   1
 p    3 1.00
          13.571470233  -0.058848116969522
          2.9257372874   -0.32024624762471
         0.79927750754   -0.75328226520436
 p    1 1.00
         0.21954348034                   1
 d    1 1.00
                     1                   1

25 0
 s    3 1.00
             13.010701   0.033485484812989
             1.9622572    0.23472187088125
            0.44453796    0.81377028525955
 s    1 1.00
            0.12194962                   1
 p    1 1.00
                   0.8                   1

26 0
 s    3 1.00
             13.010701   0.033485484812989
             1.9622572    0.23472187088125
            0.44453796    0.81377028525955
 s    1 1.00
            0.12194962                   1
 p    1 1.00
                   0.8                   1

27 0
 s    3 1.00
             13.010701   0.033485484812989
             1.9622572    0.23472187088125
            0.44453796    0.81377028525955
 s    1 1.00
            0.12194962                   1
 p    1 1.00
                   0.8                   1

28 0
 s    5 1.00
          1712.8415853  -0.0054477995804909
          257.64812677  -0.040627174632423
          58.458245853   -0.18111962250584
          16.198367905   -0.46843975563173
          5.0052600809   -0.44616846289231
 s    1 1.00
         0.58731856571                   1
 s    1 1.00
         0.18764592253                   1
 p    3 1.00
          13.571470233  -0.058848116969522
          2.9257372874   -0.32024624762471
         0.79927750754   -0.75328226520436
 p    1 1.00
         0.21954348034                   1
 d    1 1.00
                     1                   1

29 0
 s    3 1.00
             13.010701   0.033485484812989
             1.9622572    0.23472187088125
            0.44453796    0.81377028525955
 s    1 1.00
            0.12194962                   1
 p    1 1.00
                   0.8                   1

30 0
 s    3 1.00
             13.010701   0.033485484812989
             1.9622572    0.23472187088125
            0.44453796    0.81377028525955
 s    1 1.00
            0.12194962                   1
 p    1 1.00
                   0.8                   1

31 0
 s    3 1.00
             13.010701   0.033485484812989
             1.9622572    0.23472187088125
            0.44453796    0.81377028525955
 s    1 1.00
            0.12194962                   1
 p    1 1.00
                   0.8                   1

32 0
 s    5 1.00
          1712.8415853  -0.0054477995804909
          257.64812677  -0.040627174632423
          58.458245853   -0.18111962250584
          16.198367905   -0.46843975563173
          5.0052600809   -0.44616846289231
 s    1 1.00
         0.58731856571                   1
 s    1 1.00
         0.18764592253                   1
 p    3 1.00
          13.571470233  -0.058848116969522
          2.9257372874   -0.32024624762471
         0.79927750754   -0.75328226520436
 p    1 1.00
         0.21954348034                   1
 d    1 1.00
                     1                   1

33 0
 s    3 1.00
             13.010701   0.033485484812989
             1.9622572    0.23472187088125
            0.44453796    0.81377028525955
 s    1 1.00
            0.12194962                   1
 p    1 1.00
                   0.8                   1

34 0
 s    3 1.00
             13.010701   0.033485484812989
             1.9622572    0.23472187088125
            0.44453796    0.81377028525955
 s    1 1.00
            0.12194962                   1
 p    1 1.00
                   0.8                   1

35 0
 s    3 1.00
             13.010701   0.033485484812989
             1.9622572    0.23472187088125
            0.44453796    0.81377028525955
 s    1 1.00
            0.12194962                   1
 p    1 1.00
                   0.8                   1

36 0
 s    5 1.00
          1712.8415853  -0.0054477995804909
          257.64812677  -0.040627174632423
          58.458245853   -0.18111962250584
          16.198367905   -0.46843975563173
          5.0052600809   -0.44616846289231
 s    1 1.00
         0.58731856571                   1
 s    1 1.00
         0.18764592253                   1
 p    3 1.00
          13.571470233  -0.058848116969522
          2.9257372874   -0.32024624762471
         0.79927750754   -0.75328226520436
 p    1 1.00
         0.21954348034                   1
 d    1 1.00
                     1                   1

37 0
 s    3 1.00
             13.010701   0.033485484812989
             1.9622572    0.23472187088125
            0.44453796    0.81377028525955
 s    1 1.00
            0.12194962                   1
 p    1 1.00
                   0.8                   1

38 0
 s    3 1.00
             13.010701   0.033485484812989
             1.9622572    0.23472187088125
            0.44453796    0.81377028525955
 s    1 1.00
            0.12194962                   1
 p    1 1.00
                   0.8                   1

39 0
 s    3 1.00
             13.010701   0.033485484812989
             1.9622572    0.23472187088125
            0.44453796    0.81377028525955
 s    1 1.00
            0.12194962                   1
 p    1 1.00
                   0.8                   1

40 0
 s    5 1.00
          1712.8415853  -0.0054477995804909
          257.64812677  -0.040627174632423
          58.458245853   -0.18111962250584
          16.198367905   -0.46843975563173
          5.0052600809   -0.44616846289231
 s    1 1.00
         0.58731856571                   1
 s    1 1.00
         0.18764592253                   1
 p    3 1.00
          13.571470233  -0.058848116969522
          2.9257372874   -0.32024624762471
         0.79927750754   -0.75328226520436
 p    1 1.00
         0.21954348034                   1
 d    1 1.00
                     1                   1

41 0
 s    3 1.00
             13.010701   0.033485484812989
             1.9622572    0.23472187088125
            0.44453796    0.81377028525955
 s    1 1.00
            0.12194962                   1
 p    1 1.00
                   0.8                   1

42 0
 s    3 1.00
             13.010701   0.033485484812989
             1.9622572    0.23472187088125
            0.44453796    0.81377028525955
 s    1 1.00
            0.12194962                   1
 p    1 1.00
                   0.8                   1

43 0
 s    3 1.00
             13.010701   0.033485484812989
             1.9622572    0.23472187088125
            0.44453796    0.81377028525955
 s    1 1.00
            0.12194962                   1
 p    1 1.00
                   0.8                   1

[5d]
[7f]
[9g]

[MO]
 Sym= A
 Ene=               0
 Spin= Alpha
 Occup=    1.00000
   1    -6.0473890994509e-06
   2    1.2626807519688e-05
   3    -0.00012712516998691
   4    0.00023600515042007
   5    -0.0016043718606745
   6    -0.0083753351349535
   7    -0.0076092749248188
   8    0.0032151090275834
   9     0.032032977613659
  10     0.028984345838115
  11    -0.012345178507503
  12    -0.057480901666333
  13    -0.052807732100734
  14     0.021899994345578
  15     0.023827752740057
  16    -0.047864985924346
  17    -0.014648779111338
  18     0.075776098978225
  19    -0.020464183382324
  20     0.014696427961567
  21    -0.029214619010587
  22    -0.0090810476019593
  23     0.045757437688534
  24    -0.012511444145362
  25    0.00014390920140156
  26    -0.0017577361388629
  27    0.0016807039544646
  28    0.0046388853742756
  29    -0.0019207350532958
  30    -0.0011444943258408
  31    0.0046541878588893
  32    6.8673818910061e-06
  33    -1.4861170435275e-05
  34    0.00013864555908359
  35    9.130380033017e-05
  36    0.00079867535195888
  37    -0.0083746404278929
  38    -0.0076099808470241
  39    0.0032155267365621
  40     0.032035842299497
  41     0.028986877807067
  42    -0.012337158395149
  43    -0.057557312972596
  44    -0.052942670901575
  45      0.02156117216652
  46     -0.02398571858613
  47     0.047943704768228
  48     0.014526094159701
  49    -0.075737812967602
  50     0.020307586697217
  51    -0.014668748162392
  52     0.029144992939876
  53    0.0091342839178545
  54    -0.045748516888497
  55     0.012762841565184
  56    0.00014580012982484
  57    -0.0017580675924358
  58    0.0016863870053965
  59     0.004637717553219
  60    -0.0019207272147899
  61    -0.0011467155936067
  62    0.0046522245278314
  63    -6.8258280597675e-06
  64    8.7187137562936e-06
  65    -5.657621423895e-05
  66     -0.40168328447449
  67     -0.36698141499587
  68      0.15348678315732
  69     -0.34709208818719
  70     -0.31737746163185
  71      0.13270063691847
  72    1.0718150344822e-05
  73    -5.3481444481683e-06
  74    7.8631330820571e-06
  75    -8.466566741199e-07
  76    1.9170406920651e-05
  77     0.010381249276962
  78     0.023208390280634
  79     0.056711214129151
  80     0.022527875293233
  81    -0.0099604836754341
  82    0.0026501516611002
  83    -0.022998319727356
  84    0.0062157056277104
  85    -0.019741823118363
  86    -2.0707787143927e-05
  87    0.00069467403711153
  88    4.4167902928639e-05
  89    -0.0022637462698453
  90    0.0016403359421496
  91    -0.017768448813788
  92    -0.0063359204759825
  93    0.00018294260401608
  94    0.00010093122102593
  95    -0.00064859867299235
  96    0.0027206623001117
  97     0.002796398881533
  98    -0.0014598358109392
  99    0.0011085884442349
 100    -0.00049351001595905
 101      0.01517802220093
 102    -0.026749399945357
 103    0.0031868082853062
 104    -0.00037151311260921
 105    0.00052755490879548
 106    0.0083364805124765
 107      0.02008119966777
 108     0.035694944050125
 109    0.0032873545579564
 110    -0.001076154664377
 111    -0.018831667595189
 112    0.0017071955225777
 113    -0.014401802456146
 114     0.017052762993061
 115    -0.0018576846518934
 116    0.00037939491688051
 117    -0.0011754273035336
 118    2.8703393937469e-05
 119    -0.00022701334186216
 120     0.012777162436314
 121    -0.0035935765855447
 122    0.0011665820075027
 123    -0.00085148025045813
 124    -0.0021944469308828
 125    -0.015048149888483
 126    -0.011614541804621
 127    -0.00095098044763817
 128    5.3641616863904e-05
 129    -0.00056257969961926
 130    0.0053521277636036
 131    0.0035269040607111
 132    -0.0009233764330324
 133    5.894394991017e-05
 134    0.0013878476617347
 135    -0.0086608078209078
 136    -0.019029588166131
 137    -0.049170139644304
 138     -0.01285511026346
 139     0.015964681253192
 140    -0.0066552472453779
 141      0.01921512260756
 142    -0.0091920044586892
 143     0.018714933317798
 144    -0.00078985106200855
 145    0.0014503837159092
 146    -0.00012682038610329
 147    -0.0015826586970881
 148    -0.0010028191190625
 149     0.014535367045026
 150    0.0045728532281021
 151    0.00024697654643727
 152    0.00034405567711605
 153    0.00035474307037727
 154    -0.012884971205526
 155     0.026727184077167
 156    -0.0007150783620362
 157     0.002397224545418
 158     -0.00169111442617
 159    -0.0010212389255587
 160    -0.0030005424755809
 161    0.0012266646873952
 162    -0.0010759799553784
 163    0.00048373477766292
 164    -0.010019886096683
 165    -0.023991542305032
 166    -0.043815074867897
 167    0.0089858794090894
 168     0.014622705728424
 169      0.01482465090637
 170    -0.025215115920612
 171    -0.0058932070467502
 172    -0.0068093135967466
 173    0.0012261775514034
 174    0.00036895681384634
 175    0.0020577593613923
 176    -0.00098226895809796
 177    0.00065322709528677
 178    -0.0075339872600182
 179    -0.0026967070372618
 180    -0.00043719761843175
 181    -0.0016375167473804
 182    -0.00032037653727399
 183     0.018549775192858
 184     0.013712287403369
 185    0.00030087545182836
 186    -0.00035332005952028
 187    0.0010331530882883
 188    -0.014587555487908
 189    0.0044433874209635
 190    0.00014965850506698
 191    0.0023817042903698
 192    0.00088207330903588
 193    2.5495516389221e-05
 194    0.00011418382787228
 195    -9.2021745130571e-05
 196    -0.0017933196101286
 197    -0.0017057375086777
 198    0.00062751759135082
 199    -0.00054210766030462
 200    -0.00030285778017546
 201    0.00029935638623799
 202    -0.00018000858511612
 203    0.00021347148075414
 204    0.00014642626249994
 205    -0.00022809051918351
 206    0.00014611711438873
 207    0.0011352867586049
 208    0.0028566366233606
 209    -0.00019706030296327
 210    0.00043224160322977
 211    0.00055136467193192
 212    -0.0012824677647714
 213    -0.0029859971645135
 214    0.0002079573423974
 215    -0.00059851597675972
 216    -0.00052070245147584
 217    0.00021494554472663
 218    0.00073016827424944
 219    9.692451745321e-05
 220    0.0002887828417491
 221    -7.2149414253513e-05
 222    -0.010465317880418
 223    -0.023128277417713
 224    -0.058342678728885
 225     0.022762565779995
 226    -0.010465012582035
 227    0.0022563296086343
 228    -0.023912016895957
 229    0.0079012667099458
 230    -0.018447845568318
 231    5.7516454579026e-05
 232    -0.00067063420236281
 233    -0.00022118618476711
 234    0.0022932753124037
 235    -0.0015479809803396
 236    -0.015173179770906
 237     0.028604297515041
 238     0.003600517789115
 239    -0.00042334449789727
 240    0.00052298717861219
 241    -0.0013157373026944
 242    -0.0021573238589227
 243    -0.0015329316714352
 244    0.0011209060202888
 245    -0.00027186242551176
 246     0.017085051852944
 247    0.0054905744927219
 248    5.9674942280866e-05
 249    0.00022275003671022
 250    -0.00069732115181055
 251    -0.0082751297022861
 252    -0.020144792534058
 253    -0.034507147332643
 254     0.002734108796587
 255    -0.00073266131625966
 256    -0.018672975308342
 257    0.0035686962490452
 258    -0.015274246254808
 259     0.016507837496266
 260    0.0018611122042173
 261    -0.00045666095330615
 262    0.0012193299827159
 263    -7.1031625431789e-05
 264    6.6217343973335e-05
 265     0.015408395494317
 266     0.012220711906979
 267    -0.0008521079853263
 268    -2.6233589881843e-05
 269    -0.00064651408229736
 270    -0.012468099323628
 271    0.0013659811338734
 272     0.001294146355083
 273    -0.00079662019196497
 274    -0.0017121847017432
 275    -0.0065206555763545
 276     -0.00286052327434
 277    -0.00096995241242961
 278    -1.782176879978e-05
 279    0.0012012193122801
 280     0.010065756370135
 281     0.023969823370272
 282      0.04465112506569
 283    0.0087734507321311
 284     0.015089959084369
 285     0.014800986113424
 286    -0.024679306857968
 287    -0.0073344268526342
 288    -0.006641801139452
 289    -0.0012956210919207
 290    -0.00037030997420889
 291    -0.0019586921393376
 292    0.00095797640786137
 293    -0.00073719217925933
 294    -0.018263754329173
 295     -0.01315694617603
 296    0.00033607408716171
 297    -0.00047921652949784
 298    0.0010122356843241
 299    0.0066108383533182
 300    0.0029845144324623
 301    -0.00045197820284917
 302    -0.0016965203751202
 303    -0.00050696211513671
 304     0.014931634363018
 305    -0.0060893644847248
 306    0.00026334499913145
 307    0.0025231950010891
 308    0.0012296136992919
 309    0.0085820680091376
 310       0.0191242065586
 311     0.047308491412838
 312    -0.012579432699985
 313     0.015586759127267
 314    -0.0070212196219816
 315      0.01822402249937
 316    -0.007861894504601
 317     0.020091865037486
 318    0.00074903885540653
 319    -0.0013697154285606
 320    4.5903278780924e-05
 321    0.0016173847956777
 322    0.0011270906941346
 323    -0.015053021398464
 324    -0.0054180653240991
 325    0.00012902369426924
 326    0.00041477279785697
 327    0.00030222653807804
 328    0.0021358915089067
 329    0.0041115371310061
 330    0.0013031605993447
 331    -0.00093818711570525
 332    0.00062815122024061
 333     0.012957756488988
 334    -0.024777545245746
 335    -0.00064285586313878
 336    0.0020876636715577
 337    -0.0015408673170557
 338    -3.6643341482225e-05
 339    -0.00015115474580376
 340    6.4438349847446e-05
 341    -0.001751040072321
 342    -0.0017277513388499
 343    0.00065277371328606