[Molden Format]
made by pyscf v[2.1.1]
[Atoms] (AU)
Cr   1   24     1.56143912275337    -2.46507591990239    -1.82404491365355
Cr   2   24    -1.56139565905251     2.46513072196000     1.82399011159594
O   3   8     0.00002078698737     0.00002834589187    -0.00002645616574
N   4   7     5.12832174930954    -1.10581670549011    -0.60767356069801
H   5   1     6.65216855026694    -1.66292686427314    -1.66487895135981
H   6   1     5.63710405218294    -1.59213394419468     1.18765885421890
H   7   1     5.20084187906585     0.81566059741989    -0.65509245834172
N   8   7     1.71230729763415    -0.02251608677419    -4.99594076510539
H   9   1     0.29795878723855     1.27247165241550    -4.90823668593820
H   10   1     1.50271021425414    -0.85583806455427    -6.73026148236459
H   11   1     3.34039895052705     0.99863710888315    -5.18656310846864
N   12   7     1.41057094787259    -4.90763575303059     1.34785282752440
H   13   1     1.64193389675534    -6.79355407945465     0.97314659318890
H   14   1    -0.29048681014202    -4.81040367474334     2.24006056107205
H   15   1     2.72468082571676    -4.56691435331926     2.71738081369757
N   16   7    -2.00544350380280    -3.82433513431467    -3.04041437688297
H   17   1    -2.87205678671934    -5.05516478184926    -1.83221042023780
H   18   1    -2.03637832046193    -4.76397121413665    -4.73247136936628
H   19   1    -3.24475802163669    -2.37551046050250    -3.28123540501917
N   20   7     3.37923471211299    -5.33493873459111    -3.94755661599306
H   21   1     4.17102617885350    -4.76109883042731    -5.61685374703210
H   22   1     2.26176595533881    -6.82326057413281    -4.47610923358166
H   23   1     4.85383336053810    -6.19899521806112    -3.03922195969837
N   24   7    -5.12827828560868     1.10587339727385     0.60762064836653
H   25   1    -5.15408816501799    -0.81544705836782     0.54662784797006
H   26   1    -5.69743166898356     1.68113626520945    -1.14337690194197
H   27   1    -6.63528195761783     1.56841410187914     1.73267665553083
N   28   7    -1.71226383393328     0.02257088883181     4.99588785277390
H   29   1    -1.62991523860311     0.86667375415253     6.73575491620870
H   30   1    -0.22416876152653    -1.19157625647512     4.98456461383551
H   31   1    -3.28782110056328    -1.08746368536834     5.11339858210385
N   32   7     2.00548696750367     3.82438993637228     3.04035957482536
H   33   1     2.05186651577887     4.68410571893416     4.77402266739321
H   34   1     2.83712330958063     5.12208376337235     1.87805706574587
H   35   1     3.26582090902109     2.38241174030942     3.19051154350492
N   36   7    -1.41052748417173     4.90769055508820    -1.34790762958202
H   37   1    -1.75003190025884     6.78104976168840    -0.99229329828299
H   38   1    -2.65834387984003     4.49309409198925    -2.75785496783350
H   39   1     0.32278033988471     4.89894112313146    -2.18344058692784
N   40   7    -3.37919124841212     5.33499353664873     3.94750181393545
H   41   1    -2.26357064378777     6.83195331430581     4.45515784003860
H   42   1    -4.15358022727151     4.76963661305810     5.62761006813313
H   43   1    -4.86681766873998     6.18449345978121     3.04686590187224
[GTO]
1 0
 s    6 1.00
          51528.086349  0.0017695545768669
          7737.2103487   0.013556436258096
           1760.374847   0.067162645785071
          496.87706544    0.23295905918518
          161.46520598    0.47040576982722
          55.466352268    0.35733072606876
 s    3 1.00
          107.54732999   -0.10605255446629
          12.408671897    0.62543981484169
          5.0423628826    0.44878820793655
 s    3 1.00
          8.5461640165   -0.21819012081133
          1.3900441221    0.70422525667731
         0.56066602876    0.42488555412558
 s    1 1.00
        0.071483705972                   1
 s    1 1.00
        0.028250687604                   1
 p    5 1.00
          640.48536096  0.0093555063746755
          150.69711194   0.068993338492216
          47.503755296     0.2634118959318
          16.934120165    0.51034501651775
           6.240968059    0.33195512953954
 p    3 1.00
          3.0885463206    0.32917682676976
          1.1791047769    0.55491385190365
         0.43369774432    0.23818412855984
 p    1 1.00
              0.120675                   1
 d    4 1.00
          27.559479426   0.036950140313562
          7.4687020327    0.18821519783039
          2.4345903574    0.44641244239929
         0.78244754808     0.5681617303244
 d    1 1.00
         0.21995774311                   1
 f    1 1.00
                 1.147                   1

2 0
 s    6 1.00
          51528.086349  0.0017695545768669
          7737.2103487   0.013556436258096
           1760.374847   0.067162645785071
          496.87706544    0.23295905918518
          161.46520598    0.47040576982722
          55.466352268    0.35733072606876
 s    3 1.00
          107.54732999   -0.10605255446629
          12.408671897    0.62543981484169
          5.0423628826    0.44878820793655
 s    3 1.00
          8.5461640165   -0.21819012081133
          1.3900441221    0.70422525667731
         0.56066602876    0.42488555412558
 s    1 1.00
        0.071483705972                   1
 s    1 1.00
        0.028250687604                   1
 p    5 1.00
          640.48536096  0.0093555063746755
          150.69711194   0.068993338492216
          47.503755296     0.2634118959318
          16.934120165    0.51034501651775
           6.240968059    0.33195512953954
 p    3 1.00
          3.0885463206    0.32917682676976
          1.1791047769    0.55491385190365
         0.43369774432    0.23818412855984
 p    1 1.00
              0.120675                   1
 d    4 1.00
          27.559479426   0.036950140313562
          7.4687020327    0.18821519783039
          2.4345903574    0.44641244239929
         0.78244754808     0.5681617303244
 d    1 1.00
         0.21995774311                   1
 f    1 1.00
                 1.147                   1

3 0
 s    5 1.00
          2266.1767785  -0.0053893503921743
          340.87010191   -0.04023472138896
          77.363135167   -0.18008184205526
           21.47964494   -0.46828857657651
          6.6589433124   -0.44692617160187
 s    1 1.00
         0.80975975668                   1
 s    1 1.00
         0.25530772234                   1
 p    3 1.00
          17.721504317   0.062630248763161
           3.863550544    0.33331138482352
          1.0480920883    0.74148638308122
 p    1 1.00
         0.27641544411                   1
 d    1 1.00
                   1.2                   1

4 0
 s    5 1.00
          1712.8415853  -0.0054477995804909
          257.64812677  -0.040627174632423
          58.458245853   -0.18111962250584
          16.198367905   -0.46843975563173
          5.0052600809   -0.44616846289231
 s    1 1.00
         0.58731856571                   1
 s    1 1.00
         0.18764592253                   1
 p    3 1.00
          13.571470233  -0.058848116969522
          2.9257372874   -0.32024624762471
         0.79927750754   -0.75328226520436
 p    1 1.00
         0.21954348034                   1
 d    1 1.00
                     1                   1

5 0
 s    3 1.00
             13.010701   0.033485484812989
             1.9622572    0.23472187088125
            0.44453796    0.81377028525955
 s    1 1.00
            0.12194962                   1
 p    1 1.00
                   0.8                   1

6 0
 s    3 1.00
             13.010701   0.033485484812989
             1.9622572    0.23472187088125
            0.44453796    0.81377028525955
 s    1 1.00
            0.12194962                   1
 p    1 1.00
                   0.8                   1

7 0
 s    3 1.00
             13.010701   0.033485484812989
             1.9622572    0.23472187088125
            0.44453796    0.81377028525955
 s    1 1.00
            0.12194962                   1
 p    1 1.00
                   0.8                   1

8 0
 s    5 1.00
          1712.8415853  -0.0054477995804909
          257.64812677  -0.040627174632423
          58.458245853   -0.18111962250584
          16.198367905   -0.46843975563173
          5.0052600809   -0.44616846289231
 s    1 1.00
         0.58731856571                   1
 s    1 1.00
         0.18764592253                   1
 p    3 1.00
          13.571470233  -0.058848116969522
          2.9257372874   -0.32024624762471
         0.79927750754   -0.75328226520436
 p    1 1.00
         0.21954348034                   1
 d    1 1.00
                     1                   1

9 0
 s    3 1.00
             13.010701   0.033485484812989
             1.9622572    0.23472187088125
            0.44453796    0.81377028525955
 s    1 1.00
            0.12194962                   1
 p    1 1.00
                   0.8                   1

10 0
 s    3 1.00
             13.010701   0.033485484812989
             1.9622572    0.23472187088125
            0.44453796    0.81377028525955
 s    1 1.00
            0.12194962                   1
 p    1 1.00
                   0.8                   1

11 0
 s    3 1.00
             13.010701   0.033485484812989
             1.9622572    0.23472187088125
            0.44453796    0.81377028525955
 s    1 1.00
            0.12194962                   1
 p    1 1.00
                   0.8                   1

12 0
 s    5 1.00
          1712.8415853  -0.0054477995804909
          257.64812677  -0.040627174632423
          58.458245853   -0.18111962250584
          16.198367905   -0.46843975563173
          5.0052600809   -0.44616846289231
 s    1 1.00
         0.58731856571                   1
 s    1 1.00
         0.18764592253                   1
 p    3 1.00
          13.571470233  -0.058848116969522
          2.9257372874   -0.32024624762471
         0.79927750754   -0.75328226520436
 p    1 1.00
         0.21954348034                   1
 d    1 1.00
                     1                   1

13 0
 s    3 1.00
             13.010701   0.033485484812989
             1.9622572    0.23472187088125
            0.44453796    0.81377028525955
 s    1 1.00
            0.12194962                   1
 p    1 1.00
                   0.8                   1

14 0
 s    3 1.00
             13.010701   0.033485484812989
             1.9622572    0.23472187088125
            0.44453796    0.81377028525955
 s    1 1.00
            0.12194962                   1
 p    1 1.00
                   0.8                   1

15 0
 s    3 1.00
             13.010701   0.033485484812989
             1.9622572    0.23472187088125
            0.44453796    0.81377028525955
 s    1 1.00
            0.12194962                   1
 p    1 1.00
                   0.8                   1

16 0
 s    5 1.00
          1712.8415853  -0.0054477995804909
          257.64812677  -0.040627174632423
          58.458245853   -0.18111962250584
          16.198367905   -0.46843975563173
          5.0052600809   -0.44616846289231
 s    1 1.00
         0.58731856571                   1
 s    1 1.00
         0.18764592253                   1
 p    3 1.00
          13.571470233  -0.058848116969522
          2.9257372874   -0.32024624762471
         0.79927750754   -0.75328226520436
 p    1 1.00
         0.21954348034                   1
 d    1 1.00
                     1                   1

17 0
 s    3 1.00
             13.010701   0.033485484812989
             1.9622572    0.23472187088125
            0.44453796    0.81377028525955
 s    1 1.00
            0.12194962                   1
 p    1 1.00
                   0.8                   1

18 0
 s    3 1.00
             13.010701   0.033485484812989
             1.9622572    0.23472187088125
            0.44453796    0.81377028525955
 s    1 1.00
            0.12194962                   1
 p    1 1.00
                   0.8                   1

19 0
 s    3 1.00
             13.010701   0.033485484812989
             1.9622572    0.23472187088125
            0.44453796    0.81377028525955
 s    1 1.00
            0.12194962                   1
 p    1 1.00
                   0.8                   1

20 0
 s    5 1.00
          1712.8415853  -0.0054477995804909
          257.64812677  -0.040627174632423
          58.458245853   -0.18111962250584
          16.198367905   -0.46843975563173
          5.0052600809   -0.44616846289231
 s    1 1.00
         0.58731856571                   1
 s    1 1.00
         0.18764592253                   1
 p    3 1.00
          13.571470233  -0.058848116969522
          2.9257372874   -0.32024624762471
         0.79927750754   -0.75328226520436
 p    1 1.00
         0.21954348034                   1
 d    1 1.00
                     1                   1

21 0
 s    3 1.00
             13.010701   0.033485484812989
             1.9622572    0.23472187088125
            0.44453796    0.81377028525955
 s    1 1.00
            0.12194962                   1
 p    1 1.00
                   0.8                   1

22 0
 s    3 1.00
             13.010701   0.033485484812989
             1.9622572    0.23472187088125
            0.44453796    0.81377028525955
 s    1 1.00
            0.12194962                   1
 p    1 1.00
                   0.8                   1

23 0
 s    3 1.00
             13.010701   0.033485484812989
             1.9622572    0.23472187088125
            0.44453796    0.81377028525955
 s    1 1.00
            0.12194962                   1
 p    1 1.00
                   0.8                   1

24 0
 s    5 1.00
          1712.8415853  -0.0054477995804909
          257.64812677  -0.040627174632423
          58.458245853   -0.18111962250584
          16.198367905   -0.46843975563173
          5.0052600809   -0.44616846289231
 s    1 1.00
         0.58731856571                   1
 s    1 1.00
         0.18764592253                   1
 p    3 1.00
          13.571470233  -0.058848116969522
          2.9257372874   -0.32024624762471
         0.79927750754   -0.75328226520436
 p    1 1.00
         0.21954348034                   1
 d    1 1.00
                     1                   1

25 0
 s    3 1.00
             13.010701   0.033485484812989
             1.9622572    0.23472187088125
            0.44453796    0.81377028525955
 s    1 1.00
            0.12194962                   1
 p    1 1.00
                   0.8                   1

26 0
 s    3 1.00
             13.010701   0.033485484812989
             1.9622572    0.23472187088125
            0.44453796    0.81377028525955
 s    1 1.00
            0.12194962                   1
 p    1 1.00
                   0.8                   1

27 0
 s    3 1.00
             13.010701   0.033485484812989
             1.9622572    0.23472187088125
            0.44453796    0.81377028525955
 s    1 1.00
            0.12194962                   1
 p    1 1.00
                   0.8                   1

28 0
 s    5 1.00
          1712.8415853  -0.0054477995804909
          257.64812677  -0.040627174632423
          58.458245853   -0.18111962250584
          16.198367905   -0.46843975563173
          5.0052600809   -0.44616846289231
 s    1 1.00
         0.58731856571                   1
 s    1 1.00
         0.18764592253                   1
 p    3 1.00
          13.571470233  -0.058848116969522
          2.9257372874   -0.32024624762471
         0.79927750754   -0.75328226520436
 p    1 1.00
         0.21954348034                   1
 d    1 1.00
                     1                   1

29 0
 s    3 1.00
             13.010701   0.033485484812989
             1.9622572    0.23472187088125
            0.44453796    0.81377028525955
 s    1 1.00
            0.12194962                   1
 p    1 1.00
                   0.8                   1

30 0
 s    3 1.00
             13.010701   0.033485484812989
             1.9622572    0.23472187088125
            0.44453796    0.81377028525955
 s    1 1.00
            0.12194962                   1
 p    1 1.00
                   0.8                   1

31 0
 s    3 1.00
             13.010701   0.033485484812989
             1.9622572    0.23472187088125
            0.44453796    0.81377028525955
 s    1 1.00
            0.12194962                   1
 p    1 1.00
                   0.8                   1

32 0
 s    5 1.00
          1712.8415853  -0.0054477995804909
          257.64812677  -0.040627174632423
          58.458245853   -0.18111962250584
          16.198367905   -0.46843975563173
          5.0052600809   -0.44616846289231
 s    1 1.00
         0.58731856571                   1
 s    1 1.00
         0.18764592253                   1
 p    3 1.00
          13.571470233  -0.058848116969522
          2.9257372874   -0.32024624762471
         0.79927750754   -0.75328226520436
 p    1 1.00
         0.21954348034                   1
 d    1 1.00
                     1                   1

33 0
 s    3 1.00
             13.010701   0.033485484812989
             1.9622572    0.23472187088125
            0.44453796    0.81377028525955
 s    1 1.00
            0.12194962                   1
 p    1 1.00
                   0.8                   1

34 0
 s    3 1.00
             13.010701   0.033485484812989
             1.9622572    0.23472187088125
            0.44453796    0.81377028525955
 s    1 1.00
            0.12194962                   1
 p    1 1.00
                   0.8                   1

35 0
 s    3 1.00
             13.010701   0.033485484812989
             1.9622572    0.23472187088125
            0.44453796    0.81377028525955
 s    1 1.00
            0.12194962                   1
 p    1 1.00
                   0.8                   1

36 0
 s    5 1.00
          1712.8415853  -0.0054477995804909
          257.64812677  -0.040627174632423
          58.458245853   -0.18111962250584
          16.198367905   -0.46843975563173
          5.0052600809   -0.44616846289231
 s    1 1.00
         0.58731856571                   1
 s    1 1.00
         0.18764592253                   1
 p    3 1.00
          13.571470233  -0.058848116969522
          2.9257372874   -0.32024624762471
         0.79927750754   -0.75328226520436
 p    1 1.00
         0.21954348034                   1
 d    1 1.00
                     1                   1

37 0
 s    3 1.00
             13.010701   0.033485484812989
             1.9622572    0.23472187088125
            0.44453796    0.81377028525955
 s    1 1.00
            0.12194962                   1
 p    1 1.00
                   0.8                   1

38 0
 s    3 1.00
             13.010701   0.033485484812989
             1.9622572    0.23472187088125
            0.44453796    0.81377028525955
 s    1 1.00
            0.12194962                   1
 p    1 1.00
                   0.8                   1

39 0
 s    3 1.00
             13.010701   0.033485484812989
             1.9622572    0.23472187088125
            0.44453796    0.81377028525955
 s    1 1.00
            0.12194962                   1
 p    1 1.00
                   0.8                   1

40 0
 s    5 1.00
          1712.8415853  -0.0054477995804909
          257.64812677  -0.040627174632423
          58.458245853   -0.18111962250584
          16.198367905   -0.46843975563173
          5.0052600809   -0.44616846289231
 s    1 1.00
         0.58731856571                   1
 s    1 1.00
         0.18764592253                   1
 p    3 1.00
          13.571470233  -0.058848116969522
          2.9257372874   -0.32024624762471
         0.79927750754   -0.75328226520436
 p    1 1.00
         0.21954348034                   1
 d    1 1.00
                     1                   1

41 0
 s    3 1.00
             13.010701   0.033485484812989
             1.9622572    0.23472187088125
            0.44453796    0.81377028525955
 s    1 1.00
            0.12194962                   1
 p    1 1.00
                   0.8                   1

42 0
 s    3 1.00
             13.010701   0.033485484812989
             1.9622572    0.23472187088125
            0.44453796    0.81377028525955
 s    1 1.00
            0.12194962                   1
 p    1 1.00
                   0.8                   1

43 0
 s    3 1.00
             13.010701   0.033485484812989
             1.9622572    0.23472187088125
            0.44453796    0.81377028525955
 s    1 1.00
            0.12194962                   1
 p    1 1.00
                   0.8                   1

[5d]
[7f]
[9g]

[MO]
 Sym= A
 Ene=               0
 Spin= Alpha
 Occup=    1.00000
   1    1.2085556005106e-05
   2    -8.9393925579435e-06
   3    0.0002530202974884
   4    0.00036600111710598
   5    0.00019508423497832
   6    0.00011384703007898
   7    0.00010365759507816
   8    -9.7530132187638e-05
   9    -0.00035043224159455
  10    -0.00032758159889173
  11    0.00031037708581104
  12    -0.00018839680671754
  13    -8.0835119326225e-05
  14    -0.0002822555575057
  15     0.095306161641901
  16    -0.061684938428365
  17     -0.12061144008069
  18     -0.10724476173644
  19    -0.057055686166848
  20      0.06963925078712
  21    -0.045209849583798
  22     -0.08794411781213
  23    -0.077865707997657
  24    -0.041712089633971
  25    -0.00050643404905969
  26    0.00043284292456611
  27    0.00016680343010219
  28    -0.00028649082299989
  29    6.4092970416193e-05
  30    -0.00056892357437448
  31    0.00031942331444664
  32    -1.7972937986987e-05
  33    2.720186838923e-05
  34    -0.00033454219452629
  35    -3.0112671553891e-05
  36    -0.00012705071384311
  37    -7.7301809671492e-07
  38    -2.5368355501974e-05
  39    -6.6345202190562e-06
  40    4.4127951863057e-06
  41    8.4273162050149e-05
  42    2.1001486813938e-05
  43    -9.7798271690856e-05
  44    -0.000207191645311
  45    6.3798151289676e-05
  46    -0.0002496719532091
  47    9.4238868032412e-05
  48    0.00043020170216604
  49    0.00015312550768492
  50    3.7952866824253e-05
  51    -0.00082976939801723
  52    0.00054147186767945
  53    0.0010346241318848
  54    0.0007169612842598
  55    0.0004012358191305
  56    -9.9319505205361e-06
  57    1.2987682116257e-05
  58    3.5923718972634e-06
  59    -4.6259244845314e-06
  60    5.4896270116743e-06
  61    -2.5948291877109e-05
  62    1.3896420590571e-05
  63    -2.7579252492365e-05
  64    -0.00028314828419398
  65    -8.4823896039506e-05
  66    -0.00053492551770658
  67    6.6802768146058e-05
  68    0.00045926566143515
  69    -0.00035384903363766
  70    0.00015888720329104
  71    0.00021009743887006
  72    0.00039352616864003
  73    -0.00025806593467547
  74    -0.00050423037951941
  75    -0.00043456744852106
  76    -0.00023714965716108
  77    -0.060464870877883
  78     -0.15322965035615
  79     -0.13187984558419
  80     -0.21154751716297
  81    -0.085870849853543
  82    -0.071688045752442
  83      0.14774208112907
  84     0.065321850643311
  85     0.051623172438521
  86    0.00023222472080092
  87    -0.0002804079394766
  88    -0.00045801217462726
  89    -0.00011612256957227
  90    -0.00021800980554126
  91     0.025268662610578
  92     0.015899217789158
  93    0.0039991390290437
  94    0.0040858770903279
  95    0.0044692683052801
  96     0.024779764992595
  97     0.019003019971112
  98    0.0062152567015047
  99    0.0031810976960118
 100    -0.00089429661923359
 101     0.017094702665631
 102     0.019284255781789
 103    0.0071842776860843
 104    0.00036032677587012
 105    0.0018711956872201
 106     0.060254385647802
 107      0.15262521345193
 108      0.13222286973252
 109     0.004051219057598
 110      0.14977537514843
 111     -0.18726616130223
 112    0.00082148189325598
 113     -0.11028209708903
 114      0.13046156339367
 115    0.00013980838452322
 116    -0.00015144981671271
 117    -0.0004434207699922
 118    -0.00039933571267052
 119    -0.00032174477799573
 120    -0.014867094201602
 121    -0.020380360921486
 122    -0.0016365064100897
 123    -0.0031204740076188
 124    0.0066575661008725
 125     -0.02606102803015
 126    -0.016210284084618
 127    -0.00043119610709527
 128    -0.0065267449322026
 129    0.0026823863268284
 130    -0.025411521887409
 131    -0.017178967713947
 132    0.0024859808114549
 133    -0.0027789599714207
 134     0.005820561571647
 135     0.060632530876211
 136        0.153843161144
 137      0.13239516433743
 138     -0.01324368639234
 139     -0.14491537399623
 140      0.19054838065003
 141     0.013065957872705
 142      0.10008848412122
 143     -0.13668778013479
 144    0.00044511321692922
 145    -0.00027783952676704
 146    -0.00026931226690713
 147    -0.00016859713247001
 148    -0.00015955534366313
 149    -0.025088461283108
 150    -0.015794540830549
 151    0.0010076383048724
 152     0.001086789185729
 153    -0.0071120048181451
 154    -0.017446467487856
 155    -0.019596648250514
 156    -0.001599445561985
 157    0.0054308788869805
 158    -0.0048450168797284
 159    -0.024456918989083
 160    -0.019118428268387
 161    0.0023003891507018
 162    0.0055760219367942
 163    -0.003650953639467
 164    -0.060147147802699
 165     -0.15217910638091
 166     -0.13182575429506
 167      0.21516089718926
 168     0.075883350100394
 169     0.071802169173467
 170     -0.15552476169735
 171    -0.049346305996306
 172     -0.04916286114037
 173    0.00040454258423624
 174    -0.00016426508627141
 175    -0.00029341289763565
 176    -0.0004308012352856
 177    -2.6847177811872e-05
 178     0.024659456960847
 179     0.017460262810721
 180    -0.0052638206566693
 181    -0.00074833049882955
 182    -0.004471526195025
 183     0.026071907343081
 184     0.016117627428469
 185    -0.0070495573932814
 186    -0.00049736988190163
 187    0.00099533555767317
 188     0.016007805546521
 189     0.019464901192496
 190    -0.0054460738837491
 191    -0.0043307611941512
 192    -0.0026400691763676
 193    -3.0855026647516e-05
 194    4.0341574978287e-05
 195    -5.5380180500887e-05
 196    0.00025699921124957
 197    0.00051780148347123
 198    -0.00017347849389363
 199    -0.0016992057163107
 200    -0.0022919829684518
 201    0.0013381262854258
 202    0.00040468299029001
 203    -0.0002591390823909
 204    -0.00052292493167597
 205    -0.00047760729111013
 206    -0.00024729461039327
 207     0.002249827098022
 208    0.0011342953644369
 209    -0.00050438685766664
 210    0.00071064494692235
 211    -0.0001007095711493
 212    -0.0018852827876242
 213    -0.0010923164118705
 214    0.00072529951490341
 215    -0.00045532019008069
 216    7.2003294842949e-05
 217    -0.00013776563433374
 218    -0.00019245441557588
 219    -0.00050932553280911
 220    -0.0005926414879988
 221    0.00023790800116225
 222    -0.00024159330070192
 223    6.3269574972406e-05
 224    -0.0028415303160239
 225    -0.00029888283791772
 226    -0.00088491529759467
 227    -0.00061499217566418
 228    -0.0017573186603411
 229     0.001754559008369
 230    0.0012961639301524
 231    2.2162682992628e-05
 232    -9.4187689364462e-05
 233    3.6380549737746e-05
 234    0.00011250224170769
 235    -4.7852380304313e-05
 236    -0.00014738263006632
 237    0.00081863147568103
 238    -8.3903745541913e-05
 239    5.3984538637095e-05
 240    -8.4725100605602e-05
 241    -9.0403658352288e-05
 242    3.370645816473e-05
 243    0.0001751681208792
 244    -8.8994192327909e-05
 245    -7.7007697036258e-05
 246    -0.00016765194711272
 247    -0.00044959884717175
 248    -6.0997528422992e-05
 249    2.4344282762001e-05
 250    0.0001536376357393
 251    0.00013510988213911
 252    -0.00033548244531823
 253    0.0016440524809142
 254    -0.00048862787587183
 255    0.0011720199458419
 256    -0.00028676713745626
 257    0.00088752761971055
 258    -0.0014596223470466
 259    -0.0016395162795926
 260    -9.264032573115e-05
 261    1.1497087756651e-05
 262    -7.8919103291818e-05
 263    2.3279758478395e-05
 264    -4.5393255034597e-05
 265    0.00014932293867865
 266    0.00031473660050034
 267    -6.1268394514613e-05
 268    -0.00011594229637556
 269    -6.2918640377621e-05
 270    0.00020741990667099
 271    0.00015152167323116
 272    7.1397083790223e-05
 273    8.7416702115687e-05
 274    -0.00017885571533059
 275    -5.8892562375514e-06
 276    -5.2536482638356e-05
 277    -3.612880498517e-05
 278    6.1968157751245e-05
 279    0.00019038245702056
 280    -0.00022656856135957
 281    -4.8382704714184e-05
 282    -0.001971967324186
 283    0.0010350888187067
 284    -0.00043142001204444
 285    -0.00014818986105758
 286    -0.00052364655852551
 287    0.0017802283042632
 288    0.0015791747853035
 289    9.2719760565025e-05
 290    -1.0895900665916e-05
 291    8.661844581599e-05
 292    -2.7417031131912e-05
 293    4.3987144152215e-05
 294    -0.00022874886354522
 295    -0.00030128317978055
 296    -6.0267459928567e-05
 297    -1.550801148182e-06
 298    0.00014610984574392
 299    -7.5384554120106e-05
 300    0.00010162728680116
 301    -1.6020810486231e-05
 302    -0.00012515673500777
 303    -0.00016250579187338
 304    -0.00023504227769193
 305    -6.3978734467867e-05
 306    0.00014386777779422
 307    0.00012127720858622
 308    5.1066867437008e-05
 309    0.0001822069110247
 310    -0.00042227847485057
 311    0.0027029341705705
 312    -0.00043564460566879
 313    4.7356994948351e-05
 314    0.0012484271442802
 315    0.0013083066195772
 316    -0.0023863823157649
 317    -0.0012380686347317
 318    4.4305916718614e-05
 319    -9.9575815510737e-06
 320    -3.2563405629856e-05
 321    0.00015440311537686
 322    4.9511067999195e-05
 323    6.3536470829726e-05
 324     0.000519024974463
 325    -4.0610073711552e-06
 326    -0.00012754460765423
 327    -0.00010385861887893
 328    4.6896400174854e-05
 329    7.0722653487155e-05
 330    -0.00010588082839791
 331    0.00018588589019979
 332    3.5506032151588e-06
 333    4.1123344024276e-05
 334    -0.00066267531651891
 335    8.886180276712e-05
 336    5.5911124082427e-05
 337    5.6154907845512e-05
 338    -4.8687835337007e-05
 339    -0.00020490646833638