[Molden Format]
made by pyscf v[2.1.1]
[Atoms] (AU)
Cr   1   24     1.56143912275337    -2.46507591990239    -1.82404491365355
Cr   2   24    -1.56139565905251     2.46513072196000     1.82399011159594
O   3   8     0.00002078698737     0.00002834589187    -0.00002645616574
N   4   7     5.12832174930954    -1.10581670549011    -0.60767356069801
H   5   1     6.65216855026694    -1.66292686427314    -1.66487895135981
H   6   1     5.63710405218294    -1.59213394419468     1.18765885421890
H   7   1     5.20084187906585     0.81566059741989    -0.65509245834172
N   8   7     1.71230729763415    -0.02251608677419    -4.99594076510539
H   9   1     0.29795878723855     1.27247165241550    -4.90823668593820
H   10   1     1.50271021425414    -0.85583806455427    -6.73026148236459
H   11   1     3.34039895052705     0.99863710888315    -5.18656310846864
N   12   7     1.41057094787259    -4.90763575303059     1.34785282752440
H   13   1     1.64193389675534    -6.79355407945465     0.97314659318890
H   14   1    -0.29048681014202    -4.81040367474334     2.24006056107205
H   15   1     2.72468082571676    -4.56691435331926     2.71738081369757
N   16   7    -2.00544350380280    -3.82433513431467    -3.04041437688297
H   17   1    -2.87205678671934    -5.05516478184926    -1.83221042023780
H   18   1    -2.03637832046193    -4.76397121413665    -4.73247136936628
H   19   1    -3.24475802163669    -2.37551046050250    -3.28123540501917
N   20   7     3.37923471211299    -5.33493873459111    -3.94755661599306
H   21   1     4.17102617885350    -4.76109883042731    -5.61685374703210
H   22   1     2.26176595533881    -6.82326057413281    -4.47610923358166
H   23   1     4.85383336053810    -6.19899521806112    -3.03922195969837
N   24   7    -5.12827828560868     1.10587339727385     0.60762064836653
H   25   1    -5.15408816501799    -0.81544705836782     0.54662784797006
H   26   1    -5.69743166898356     1.68113626520945    -1.14337690194197
H   27   1    -6.63528195761783     1.56841410187914     1.73267665553083
N   28   7    -1.71226383393328     0.02257088883181     4.99588785277390
H   29   1    -1.62991523860311     0.86667375415253     6.73575491620870
H   30   1    -0.22416876152653    -1.19157625647512     4.98456461383551
H   31   1    -3.28782110056328    -1.08746368536834     5.11339858210385
N   32   7     2.00548696750367     3.82438993637228     3.04035957482536
H   33   1     2.05186651577887     4.68410571893416     4.77402266739321
H   34   1     2.83712330958063     5.12208376337235     1.87805706574587
H   35   1     3.26582090902109     2.38241174030942     3.19051154350492
N   36   7    -1.41052748417173     4.90769055508820    -1.34790762958202
H   37   1    -1.75003190025884     6.78104976168840    -0.99229329828299
H   38   1    -2.65834387984003     4.49309409198925    -2.75785496783350
H   39   1     0.32278033988471     4.89894112313146    -2.18344058692784
N   40   7    -3.37919124841212     5.33499353664873     3.94750181393545
H   41   1    -2.26357064378777     6.83195331430581     4.45515784003860
H   42   1    -4.15358022727151     4.76963661305810     5.62761006813313
H   43   1    -4.86681766873998     6.18449345978121     3.04686590187224
[GTO]
1 0
 s    6 1.00
          51528.086349  0.0017695545768669
          7737.2103487   0.013556436258096
           1760.374847   0.067162645785071
          496.87706544    0.23295905918518
          161.46520598    0.47040576982722
          55.466352268    0.35733072606876
 s    3 1.00
          107.54732999   -0.10605255446629
          12.408671897    0.62543981484169
          5.0423628826    0.44878820793655
 s    3 1.00
          8.5461640165   -0.21819012081133
          1.3900441221    0.70422525667731
         0.56066602876    0.42488555412558
 s    1 1.00
        0.071483705972                   1
 s    1 1.00
        0.028250687604                   1
 p    5 1.00
          640.48536096  0.0093555063746755
          150.69711194   0.068993338492216
          47.503755296     0.2634118959318
          16.934120165    0.51034501651775
           6.240968059    0.33195512953954
 p    3 1.00
          3.0885463206    0.32917682676976
          1.1791047769    0.55491385190365
         0.43369774432    0.23818412855984
 p    1 1.00
              0.120675                   1
 d    4 1.00
          27.559479426   0.036950140313562
          7.4687020327    0.18821519783039
          2.4345903574    0.44641244239929
         0.78244754808     0.5681617303244
 d    1 1.00
         0.21995774311                   1
 f    1 1.00
                 1.147                   1

2 0
 s    6 1.00
          51528.086349  0.0017695545768669
          7737.2103487   0.013556436258096
           1760.374847   0.067162645785071
          496.87706544    0.23295905918518
          161.46520598    0.47040576982722
          55.466352268    0.35733072606876
 s    3 1.00
          107.54732999   -0.10605255446629
          12.408671897    0.62543981484169
          5.0423628826    0.44878820793655
 s    3 1.00
          8.5461640165   -0.21819012081133
          1.3900441221    0.70422525667731
         0.56066602876    0.42488555412558
 s    1 1.00
        0.071483705972                   1
 s    1 1.00
        0.028250687604                   1
 p    5 1.00
          640.48536096  0.0093555063746755
          150.69711194   0.068993338492216
          47.503755296     0.2634118959318
          16.934120165    0.51034501651775
           6.240968059    0.33195512953954
 p    3 1.00
          3.0885463206    0.32917682676976
          1.1791047769    0.55491385190365
         0.43369774432    0.23818412855984
 p    1 1.00
              0.120675                   1
 d    4 1.00
          27.559479426   0.036950140313562
          7.4687020327    0.18821519783039
          2.4345903574    0.44641244239929
         0.78244754808     0.5681617303244
 d    1 1.00
         0.21995774311                   1
 f    1 1.00
                 1.147                   1

3 0
 s    5 1.00
          2266.1767785  -0.0053893503921743
          340.87010191   -0.04023472138896
          77.363135167   -0.18008184205526
           21.47964494   -0.46828857657651
          6.6589433124   -0.44692617160187
 s    1 1.00
         0.80975975668                   1
 s    1 1.00
         0.25530772234                   1
 p    3 1.00
          17.721504317   0.062630248763161
           3.863550544    0.33331138482352
          1.0480920883    0.74148638308122
 p    1 1.00
         0.27641544411                   1
 d    1 1.00
                   1.2                   1

4 0
 s    5 1.00
          1712.8415853  -0.0054477995804909
          257.64812677  -0.040627174632423
          58.458245853   -0.18111962250584
          16.198367905   -0.46843975563173
          5.0052600809   -0.44616846289231
 s    1 1.00
         0.58731856571                   1
 s    1 1.00
         0.18764592253                   1
 p    3 1.00
          13.571470233  -0.058848116969522
          2.9257372874   -0.32024624762471
         0.79927750754   -0.75328226520436
 p    1 1.00
         0.21954348034                   1
 d    1 1.00
                     1                   1

5 0
 s    3 1.00
             13.010701   0.033485484812989
             1.9622572    0.23472187088125
            0.44453796    0.81377028525955
 s    1 1.00
            0.12194962                   1
 p    1 1.00
                   0.8                   1

6 0
 s    3 1.00
             13.010701   0.033485484812989
             1.9622572    0.23472187088125
            0.44453796    0.81377028525955
 s    1 1.00
            0.12194962                   1
 p    1 1.00
                   0.8                   1

7 0
 s    3 1.00
             13.010701   0.033485484812989
             1.9622572    0.23472187088125
            0.44453796    0.81377028525955
 s    1 1.00
            0.12194962                   1
 p    1 1.00
                   0.8                   1

8 0
 s    5 1.00
          1712.8415853  -0.0054477995804909
          257.64812677  -0.040627174632423
          58.458245853   -0.18111962250584
          16.198367905   -0.46843975563173
          5.0052600809   -0.44616846289231
 s    1 1.00
         0.58731856571                   1
 s    1 1.00
         0.18764592253                   1
 p    3 1.00
          13.571470233  -0.058848116969522
          2.9257372874   -0.32024624762471
         0.79927750754   -0.75328226520436
 p    1 1.00
         0.21954348034                   1
 d    1 1.00
                     1                   1

9 0
 s    3 1.00
             13.010701   0.033485484812989
             1.9622572    0.23472187088125
            0.44453796    0.81377028525955
 s    1 1.00
            0.12194962                   1
 p    1 1.00
                   0.8                   1

10 0
 s    3 1.00
             13.010701   0.033485484812989
             1.9622572    0.23472187088125
            0.44453796    0.81377028525955
 s    1 1.00
            0.12194962                   1
 p    1 1.00
                   0.8                   1

11 0
 s    3 1.00
             13.010701   0.033485484812989
             1.9622572    0.23472187088125
            0.44453796    0.81377028525955
 s    1 1.00
            0.12194962                   1
 p    1 1.00
                   0.8                   1

12 0
 s    5 1.00
          1712.8415853  -0.0054477995804909
          257.64812677  -0.040627174632423
          58.458245853   -0.18111962250584
          16.198367905   -0.46843975563173
          5.0052600809   -0.44616846289231
 s    1 1.00
         0.58731856571                   1
 s    1 1.00
         0.18764592253                   1
 p    3 1.00
          13.571470233  -0.058848116969522
          2.9257372874   -0.32024624762471
         0.79927750754   -0.75328226520436
 p    1 1.00
         0.21954348034                   1
 d    1 1.00
                     1                   1

13 0
 s    3 1.00
             13.010701   0.033485484812989
             1.9622572    0.23472187088125
            0.44453796    0.81377028525955
 s    1 1.00
            0.12194962                   1
 p    1 1.00
                   0.8                   1

14 0
 s    3 1.00
             13.010701   0.033485484812989
             1.9622572    0.23472187088125
            0.44453796    0.81377028525955
 s    1 1.00
            0.12194962                   1
 p    1 1.00
                   0.8                   1

15 0
 s    3 1.00
             13.010701   0.033485484812989
             1.9622572    0.23472187088125
            0.44453796    0.81377028525955
 s    1 1.00
            0.12194962                   1
 p    1 1.00
                   0.8                   1

16 0
 s    5 1.00
          1712.8415853  -0.0054477995804909
          257.64812677  -0.040627174632423
          58.458245853   -0.18111962250584
          16.198367905   -0.46843975563173
          5.0052600809   -0.44616846289231
 s    1 1.00
         0.58731856571                   1
 s    1 1.00
         0.18764592253                   1
 p    3 1.00
          13.571470233  -0.058848116969522
          2.9257372874   -0.32024624762471
         0.79927750754   -0.75328226520436
 p    1 1.00
         0.21954348034                   1
 d    1 1.00
                     1                   1

17 0
 s    3 1.00
             13.010701   0.033485484812989
             1.9622572    0.23472187088125
            0.44453796    0.81377028525955
 s    1 1.00
            0.12194962                   1
 p    1 1.00
                   0.8                   1

18 0
 s    3 1.00
             13.010701   0.033485484812989
             1.9622572    0.23472187088125
            0.44453796    0.81377028525955
 s    1 1.00
            0.12194962                   1
 p    1 1.00
                   0.8                   1

19 0
 s    3 1.00
             13.010701   0.033485484812989
             1.9622572    0.23472187088125
            0.44453796    0.81377028525955
 s    1 1.00
            0.12194962                   1
 p    1 1.00
                   0.8                   1

20 0
 s    5 1.00
          1712.8415853  -0.0054477995804909
          257.64812677  -0.040627174632423
          58.458245853   -0.18111962250584
          16.198367905   -0.46843975563173
          5.0052600809   -0.44616846289231
 s    1 1.00
         0.58731856571                   1
 s    1 1.00
         0.18764592253                   1
 p    3 1.00
          13.571470233  -0.058848116969522
          2.9257372874   -0.32024624762471
         0.79927750754   -0.75328226520436
 p    1 1.00
         0.21954348034                   1
 d    1 1.00
                     1                   1

21 0
 s    3 1.00
             13.010701   0.033485484812989
             1.9622572    0.23472187088125
            0.44453796    0.81377028525955
 s    1 1.00
            0.12194962                   1
 p    1 1.00
                   0.8                   1

22 0
 s    3 1.00
             13.010701   0.033485484812989
             1.9622572    0.23472187088125
            0.44453796    0.81377028525955
 s    1 1.00
            0.12194962                   1
 p    1 1.00
                   0.8                   1

23 0
 s    3 1.00
             13.010701   0.033485484812989
             1.9622572    0.23472187088125
            0.44453796    0.81377028525955
 s    1 1.00
            0.12194962                   1
 p    1 1.00
                   0.8                   1

24 0
 s    5 1.00
          1712.8415853  -0.0054477995804909
          257.64812677  -0.040627174632423
          58.458245853   -0.18111962250584
          16.198367905   -0.46843975563173
          5.0052600809   -0.44616846289231
 s    1 1.00
         0.58731856571                   1
 s    1 1.00
         0.18764592253                   1
 p    3 1.00
          13.571470233  -0.058848116969522
          2.9257372874   -0.32024624762471
         0.79927750754   -0.75328226520436
 p    1 1.00
         0.21954348034                   1
 d    1 1.00
                     1                   1

25 0
 s    3 1.00
             13.010701   0.033485484812989
             1.9622572    0.23472187088125
            0.44453796    0.81377028525955
 s    1 1.00
            0.12194962                   1
 p    1 1.00
                   0.8                   1

26 0
 s    3 1.00
             13.010701   0.033485484812989
             1.9622572    0.23472187088125
            0.44453796    0.81377028525955
 s    1 1.00
            0.12194962                   1
 p    1 1.00
                   0.8                   1

27 0
 s    3 1.00
             13.010701   0.033485484812989
             1.9622572    0.23472187088125
            0.44453796    0.81377028525955
 s    1 1.00
            0.12194962                   1
 p    1 1.00
                   0.8                   1

28 0
 s    5 1.00
          1712.8415853  -0.0054477995804909
          257.64812677  -0.040627174632423
          58.458245853   -0.18111962250584
          16.198367905   -0.46843975563173
          5.0052600809   -0.44616846289231
 s    1 1.00
         0.58731856571                   1
 s    1 1.00
         0.18764592253                   1
 p    3 1.00
          13.571470233  -0.058848116969522
          2.9257372874   -0.32024624762471
         0.79927750754   -0.75328226520436
 p    1 1.00
         0.21954348034                   1
 d    1 1.00
                     1                   1

29 0
 s    3 1.00
             13.010701   0.033485484812989
             1.9622572    0.23472187088125
            0.44453796    0.81377028525955
 s    1 1.00
            0.12194962                   1
 p    1 1.00
                   0.8                   1

30 0
 s    3 1.00
             13.010701   0.033485484812989
             1.9622572    0.23472187088125
            0.44453796    0.81377028525955
 s    1 1.00
            0.12194962                   1
 p    1 1.00
                   0.8                   1

31 0
 s    3 1.00
             13.010701   0.033485484812989
             1.9622572    0.23472187088125
            0.44453796    0.81377028525955
 s    1 1.00
            0.12194962                   1
 p    1 1.00
                   0.8                   1

32 0
 s    5 1.00
          1712.8415853  -0.0054477995804909
          257.64812677  -0.040627174632423
          58.458245853   -0.18111962250584
          16.198367905   -0.46843975563173
          5.0052600809   -0.44616846289231
 s    1 1.00
         0.58731856571                   1
 s    1 1.00
         0.18764592253                   1
 p    3 1.00
          13.571470233  -0.058848116969522
          2.9257372874   -0.32024624762471
         0.79927750754   -0.75328226520436
 p    1 1.00
         0.21954348034                   1
 d    1 1.00
                     1                   1

33 0
 s    3 1.00
             13.010701   0.033485484812989
             1.9622572    0.23472187088125
            0.44453796    0.81377028525955
 s    1 1.00
            0.12194962                   1
 p    1 1.00
                   0.8                   1

34 0
 s    3 1.00
             13.010701   0.033485484812989
             1.9622572    0.23472187088125
            0.44453796    0.81377028525955
 s    1 1.00
            0.12194962                   1
 p    1 1.00
                   0.8                   1

35 0
 s    3 1.00
             13.010701   0.033485484812989
             1.9622572    0.23472187088125
            0.44453796    0.81377028525955
 s    1 1.00
            0.12194962                   1
 p    1 1.00
                   0.8                   1

36 0
 s    5 1.00
          1712.8415853  -0.0054477995804909
          257.64812677  -0.040627174632423
          58.458245853   -0.18111962250584
          16.198367905   -0.46843975563173
          5.0052600809   -0.44616846289231
 s    1 1.00
         0.58731856571                   1
 s    1 1.00
         0.18764592253                   1
 p    3 1.00
          13.571470233  -0.058848116969522
          2.9257372874   -0.32024624762471
         0.79927750754   -0.75328226520436
 p    1 1.00
         0.21954348034                   1
 d    1 1.00
                     1                   1

37 0
 s    3 1.00
             13.010701   0.033485484812989
             1.9622572    0.23472187088125
            0.44453796    0.81377028525955
 s    1 1.00
            0.12194962                   1
 p    1 1.00
                   0.8                   1

38 0
 s    3 1.00
             13.010701   0.033485484812989
             1.9622572    0.23472187088125
            0.44453796    0.81377028525955
 s    1 1.00
            0.12194962                   1
 p    1 1.00
                   0.8                   1

39 0
 s    3 1.00
             13.010701   0.033485484812989
             1.9622572    0.23472187088125
            0.44453796    0.81377028525955
 s    1 1.00
            0.12194962                   1
 p    1 1.00
                   0.8                   1

40 0
 s    5 1.00
          1712.8415853  -0.0054477995804909
          257.64812677  -0.040627174632423
          58.458245853   -0.18111962250584
          16.198367905   -0.46843975563173
          5.0052600809   -0.44616846289231
 s    1 1.00
         0.58731856571                   1
 s    1 1.00
         0.18764592253                   1
 p    3 1.00
          13.571470233  -0.058848116969522
          2.9257372874   -0.32024624762471
         0.79927750754   -0.75328226520436
 p    1 1.00
         0.21954348034                   1
 d    1 1.00
                     1                   1

41 0
 s    3 1.00
             13.010701   0.033485484812989
             1.9622572    0.23472187088125
            0.44453796    0.81377028525955
 s    1 1.00
            0.12194962                   1
 p    1 1.00
                   0.8                   1

42 0
 s    3 1.00
             13.010701   0.033485484812989
             1.9622572    0.23472187088125
            0.44453796    0.81377028525955
 s    1 1.00
            0.12194962                   1
 p    1 1.00
                   0.8                   1

43 0
 s    3 1.00
             13.010701   0.033485484812989
             1.9622572    0.23472187088125
            0.44453796    0.81377028525955
 s    1 1.00
            0.12194962                   1
 p    1 1.00
                   0.8                   1

[5d]
[7f]
[9g]

[MO]
 Sym= A
 Ene=               0
 Spin= Alpha
 Occup=    1.00000
   1    1.7874910973019e-05
   2    -2.2573976537958e-05
   3    0.00034466552829165
   4     0.000286630128805
   5    0.00019653371589202
   6    0.00011755517538887
   7    8.8211909950267e-05
   8    -0.00010438763520568
   9    -0.00036266892316195
  10    -0.00027457056770269
  11    0.00033351433182472
  12    -0.00021735020197656
  13    -0.00015513487605875
  14    -0.00027879917453771
  15     0.095347009695718
  16    -0.061627018672481
  17     -0.12077275666869
  18     -0.10712256966987
  19    -0.056939167030211
  20      0.06966014651904
  21    -0.045198105991828
  22    -0.088006275416514
  23    -0.077805697174089
  24    -0.041672157049244
  25    -0.0005011534124585
  26    0.00043263793144646
  27    0.00016624375063943
  28    -0.00027931679516773
  29    7.0334519519142e-05
  30    -0.00057567453693354
  31    0.0003222709921463
  32    -2.4581496464991e-05
  33    4.1861255773239e-05
  34    -0.00044206780560144
  35    5.5295134642283e-05
  36    -0.0001320062496577
  37    2.9879151503785e-06
  38    -4.0932824724636e-05
  39    -1.3566044960156e-05
  40    -8.0111043234776e-06
  41    0.00013770143016143
  42    4.4406439459366e-05
  43    -0.00012249774499084
  44    -0.00028900727709519
  45    6.1808103866021e-05
  46    -0.00029512947060098
  47    3.0816581841887e-05
  48    0.00060551002001785
  49    4.1611248020702e-05
  50    -8.2995004625759e-05
  51    -0.00085178118472255
  52    0.00052532129534258
  53    0.0011040274554161
  54    0.00065686541783847
  55    0.00035640380335424
  56    -3.9611852422997e-06
  57    1.2955659147361e-05
  58    2.7551231664389e-06
  59    3.0748264043564e-06
  60    1.2805638034976e-05
  61    -3.3480680340348e-05
  62    1.6664010753717e-05
  63    -4.6951004142623e-05
  64    -0.00021837354378937
  65    -3.7758775284733e-05
  66    -0.0011290892392411
  67    0.00020562272333802
  68    0.00094135653811159
  69    -0.00087527176543738
  70    0.00029342456255361
  71    0.00063642820557362
  72    0.0003933993843578
  73    -0.00025872836895899
  74    -0.00050315341306008
  75    -0.00043505937342924
  76    -0.00023805035656791
  77    -0.060452255724553
  78     -0.15319619828869
  79     -0.13182592952675
  80     -0.21151917486531
  81    -0.085866182632829
  82    -0.071679248840067
  83      0.14771660117673
  84     0.065318407762057
  85     0.051601059784844
  86    0.00023286281712232
  87    -0.00027902647815975
  88    -0.00045787709449027
  89    -0.00011907445442159
  90    -0.00021562563784525
  91     0.025254595977811
  92     0.015894008027676
  93    0.0039976680576782
  94    0.0040858150516519
  95    0.0044687415907805
  96     0.024784146116635
  97     0.019007896881123
  98     0.006213429993967
  99    0.0031816018668274
 100    -0.00089498472657883
 101     0.017103399055527
 102     0.019265809351302
 103    0.0071876119904999
 104    0.00036039523519999
 105    0.0018715320138853
 106     0.060266232842966
 107      0.15265819340501
 108      0.13226450072517
 109     0.004053857196188
 110      0.14978945486025
 111     -0.18729033528207
 112    0.00082273091491544
 113     -0.11030687942699
 114      0.13048227542652
 115    0.00013681110902276
 116    -0.00015022962334234
 117    -0.00044514184965134
 118    -0.00039982557214479
 119    -0.00032212498062919
 120    -0.014856987697238
 121     -0.02037934665776
 122    -0.0016353547881944
 123    -0.0031209059413228
 124    0.0066545272936455
 125    -0.026072973693564
 126     -0.01622008554612
 127    -0.00043238370950265
 128    -0.0065270995220466
 129    0.0026835313258183
 130    -0.025407381953406
 131    -0.017174980772791
 132    0.0024851500557876
 133    -0.0027792605488817
 134    0.0058225750346986
 135     0.060636806717791
 136      0.15386328340815
 137      0.13237645788441
 138    -0.013249380137794
 139     -0.14492337017081
 140      0.19056377349453
 141     0.013080216670913
 142      0.10009546897529
 143      -0.1366911749148
 144    0.00044589381941853
 145    -0.0002772943911947
 146    -0.00026939456171098
 147    -0.00016812885184385
 148    -0.00015953304918001
 149    -0.025082487488536
 150    -0.015793573541877
 151    0.0010073977492919
 152    0.0010883250143532
 153    -0.0071126631718044
 154    -0.017445797518584
 155    -0.019569210823742
 156    -0.0015988923029909
 157    0.0054326960844854
 158    -0.0048470283186268
 159    -0.024455152665938
 160    -0.019119339961949
 161    0.0023009417900657
 162    0.0055759377071957
 163    -0.0036513629556158
 164    -0.060142599851384
 165     -0.15215988219795
 166     -0.13183320983659
 167      0.21514258128063
 168     0.075879847790225
 169     0.071799352255411
 170     -0.15552095989611
 171    -0.049340547365593
 172    -0.049159897583583
 173    0.00040455717787541
 174    -0.00016436217842218
 175    -0.0002935440406608
 176    -0.00043024056661377
 177    -2.7299968174982e-05
 178     0.024658822954379
 179     0.017459432500426
 180    -0.0052629840504849
 181    -0.00074834243823928
 182    -0.0044714491483205
 183     0.026078589851254
 184     0.016125160859415
 185    -0.007048243237119
 186    -0.00049665930163622
 187    0.0009966507657706
 188     0.016006348842129
 189     0.019472508067249
 190    -0.0054456016895604
 191    -0.0043301134590831
 192    -0.0026393289655342
 193    -3.0772098835444e-05
 194    3.9878517577125e-05
 195    -2.8822899869697e-05
 196    0.00025224836325144
 197    0.00052160548495437
 198    -0.00016894747069532
 199    -0.0017073626288672
 200    -0.0022797912184154
 201    0.0013469204789905
 202    0.00040473254929994
 203    -0.00025814020722152
 204    -0.00052421308165749
 205    -0.00047717139165421
 206    -0.00024601604788645
 207    0.0022531350366324
 208    0.0011380354127045
 209    -0.00050468438358114
 210    0.0007107743844939
 211    -9.991235827493e-05
 212    -0.0018841398967833
 213    -0.0010937992266883
 214    0.00072578680295805
 215    -0.00045550161965147
 216    7.1703035012806e-05
 217    -0.00013525937260758
 218    -0.00019042919166697
 219    -0.00050956743718729
 220    -0.00059227798917436
 221    0.00023757583594232
 222    -0.00025707619169428
 223    1.8350346966915e-05
 224    -0.0029036050376169
 225    -0.00026543055190535
 226    -0.00087843754766474
 227    -0.00060456496642536
 228    -0.0017877762171459
 229    0.0017513539514247
 230     0.001274205422348
 231    2.1522296201603e-05
 232    -9.5594699929617e-05
 233    3.6119078808402e-05
 234    0.00011560688474935
 235    -5.0158238460052e-05
 236    -0.00015779754313195
 237    0.0008385561714453
 238    -8.0296648557721e-05
 239    5.3620208006725e-05
 240    -8.4499125018159e-05
 241    -9.5778939588315e-05
 242    3.0308747887667e-05
 243    0.00017287722029409
 244    -8.8542755928294e-05
 245    -7.7888644813752e-05
 246    -0.00015626160023676
 247    -0.00044444481965568
 248    -6.3085086599262e-05
 249    2.4338691318594e-05
 250    0.00015318502040226
 251    0.00012093744838386
 252    -0.0003787765706048
 253    0.0015971276826812
 254    -0.00048615762992058
 255    0.0011886431416603
 256    -0.00031363478200263
 257    0.0008898421151782
 258    -0.0014869456491033
 259    -0.0016159799913429
 260    -8.9520919277425e-05
 261    1.0161056013038e-05
 262    -7.7028011441451e-05
 263    2.3726387078594e-05
 264    -4.5136193123029e-05
 265    0.00015964418468977
 266    0.00032578570004047
 267    -6.2368206080392e-05
 268    -0.00011629124377516
 269    -6.1418307979766e-05
 270    0.0001950544552189
 271    0.00014877361625327
 272    7.2888808804899e-05
 273    8.6646984006246e-05
 274    -0.00018150773625192
 275    -1.3156501918587e-05
 276    -5.5719967928508e-05
 277    -3.7172097054157e-05
 278    6.1322529558302e-05
 279    0.00019223427878045
 280    -0.00023390323655536
 281    -7.9248792113986e-05
 282    -0.0019703665095379
 283    0.0010117000301212
 284    -0.00043669612034299
 285    -0.00015277252200429
 286    -0.00051607838367881
 287    0.0017869339060133
 288    0.0015841298537117
 289    9.2754425755246e-05
 290    -1.0712588707147e-05
 291    8.6880062132365e-05
 292    -2.8022829743009e-05
 293    4.4529662729707e-05
 294    -0.00023721398214281
 295    -0.00030764070499315
 296    -5.8663651680862e-05
 297    -6.6735290825402e-07
 298    0.00014778605861038
 299    -7.6963160608945e-05
 300    0.00010363997967472
 301    -1.4809801485643e-05
 302    -0.00012493925800008
 303    -0.00016259364682986
 304    -0.00023599908475957
 305    -7.312226985084e-05
 306    0.00014485901446398
 307    0.00012172787252987
 308    5.2005892844868e-05
 309    0.00017554135327298
 310    -0.00045251255025165
 311    0.0027140623852755
 312    -0.00044121243171488
 313    3.6911067840511e-05
 314    0.0012663792418357
 315    0.0013214741068902
 316    -0.0023755426074937
 317    -0.0012426697073612
 318    4.3343098349152e-05
 319    -1.0456163903457e-05
 320    -3.2507253438616e-05
 321    0.0001538120717477
 322      4.9410977236e-05
 323    5.5523954068964e-05
 324    0.00051823754931559
 325    -4.4212940631848e-06
 326    -0.00012555964577296
 327    -0.00010460180682117
 328    4.3219835349671e-05
 329     7.24388626797e-05
 330    -0.00010539468304705
 331    0.00018576922413023
 332    2.8916813211971e-06
 333    3.8426256604427e-05
 334    -0.0006881031504586
 335    8.9726613455078e-05
 336    5.7542139755306e-05
 337    5.3989073729808e-05
 338    -5.1355346081343e-05