[Molden Format]
made by pyscf v[2.1.1]
[Atoms] (AU)
Cr   1   24     1.56143912275337    -2.46507591990239    -1.82404491365355
Cr   2   24    -1.56139565905251     2.46513072196000     1.82399011159594
O   3   8     0.00002078698737     0.00002834589187    -0.00002645616574
N   4   7     5.12832174930954    -1.10581670549011    -0.60767356069801
H   5   1     6.65216855026694    -1.66292686427314    -1.66487895135981
H   6   1     5.63710405218294    -1.59213394419468     1.18765885421890
H   7   1     5.20084187906585     0.81566059741989    -0.65509245834172
N   8   7     1.71230729763415    -0.02251608677419    -4.99594076510539
H   9   1     0.29795878723855     1.27247165241550    -4.90823668593820
H   10   1     1.50271021425414    -0.85583806455427    -6.73026148236459
H   11   1     3.34039895052705     0.99863710888315    -5.18656310846864
N   12   7     1.41057094787259    -4.90763575303059     1.34785282752440
H   13   1     1.64193389675534    -6.79355407945465     0.97314659318890
H   14   1    -0.29048681014202    -4.81040367474334     2.24006056107205
H   15   1     2.72468082571676    -4.56691435331926     2.71738081369757
N   16   7    -2.00544350380280    -3.82433513431467    -3.04041437688297
H   17   1    -2.87205678671934    -5.05516478184926    -1.83221042023780
H   18   1    -2.03637832046193    -4.76397121413665    -4.73247136936628
H   19   1    -3.24475802163669    -2.37551046050250    -3.28123540501917
N   20   7     3.37923471211299    -5.33493873459111    -3.94755661599306
H   21   1     4.17102617885350    -4.76109883042731    -5.61685374703210
H   22   1     2.26176595533881    -6.82326057413281    -4.47610923358166
H   23   1     4.85383336053810    -6.19899521806112    -3.03922195969837
N   24   7    -5.12827828560868     1.10587339727385     0.60762064836653
H   25   1    -5.15408816501799    -0.81544705836782     0.54662784797006
H   26   1    -5.69743166898356     1.68113626520945    -1.14337690194197
H   27   1    -6.63528195761783     1.56841410187914     1.73267665553083
N   28   7    -1.71226383393328     0.02257088883181     4.99588785277390
H   29   1    -1.62991523860311     0.86667375415253     6.73575491620870
H   30   1    -0.22416876152653    -1.19157625647512     4.98456461383551
H   31   1    -3.28782110056328    -1.08746368536834     5.11339858210385
N   32   7     2.00548696750367     3.82438993637228     3.04035957482536
H   33   1     2.05186651577887     4.68410571893416     4.77402266739321
H   34   1     2.83712330958063     5.12208376337235     1.87805706574587
H   35   1     3.26582090902109     2.38241174030942     3.19051154350492
N   36   7    -1.41052748417173     4.90769055508820    -1.34790762958202
H   37   1    -1.75003190025884     6.78104976168840    -0.99229329828299
H   38   1    -2.65834387984003     4.49309409198925    -2.75785496783350
H   39   1     0.32278033988471     4.89894112313146    -2.18344058692784
N   40   7    -3.37919124841212     5.33499353664873     3.94750181393545
H   41   1    -2.26357064378777     6.83195331430581     4.45515784003860
H   42   1    -4.15358022727151     4.76963661305810     5.62761006813313
H   43   1    -4.86681766873998     6.18449345978121     3.04686590187224
[GTO]
1 0
 s    6 1.00
          51528.086349  0.0017695545768669
          7737.2103487   0.013556436258096
           1760.374847   0.067162645785071
          496.87706544    0.23295905918518
          161.46520598    0.47040576982722
          55.466352268    0.35733072606876
 s    3 1.00
          107.54732999   -0.10605255446629
          12.408671897    0.62543981484169
          5.0423628826    0.44878820793655
 s    3 1.00
          8.5461640165   -0.21819012081133
          1.3900441221    0.70422525667731
         0.56066602876    0.42488555412558
 s    1 1.00
        0.071483705972                   1
 s    1 1.00
        0.028250687604                   1
 p    5 1.00
          640.48536096  0.0093555063746755
          150.69711194   0.068993338492216
          47.503755296     0.2634118959318
          16.934120165    0.51034501651775
           6.240968059    0.33195512953954
 p    3 1.00
          3.0885463206    0.32917682676976
          1.1791047769    0.55491385190365
         0.43369774432    0.23818412855984
 p    1 1.00
              0.120675                   1
 d    4 1.00
          27.559479426   0.036950140313562
          7.4687020327    0.18821519783039
          2.4345903574    0.44641244239929
         0.78244754808     0.5681617303244
 d    1 1.00
         0.21995774311                   1
 f    1 1.00
                 1.147                   1

2 0
 s    6 1.00
          51528.086349  0.0017695545768669
          7737.2103487   0.013556436258096
           1760.374847   0.067162645785071
          496.87706544    0.23295905918518
          161.46520598    0.47040576982722
          55.466352268    0.35733072606876
 s    3 1.00
          107.54732999   -0.10605255446629
          12.408671897    0.62543981484169
          5.0423628826    0.44878820793655
 s    3 1.00
          8.5461640165   -0.21819012081133
          1.3900441221    0.70422525667731
         0.56066602876    0.42488555412558
 s    1 1.00
        0.071483705972                   1
 s    1 1.00
        0.028250687604                   1
 p    5 1.00
          640.48536096  0.0093555063746755
          150.69711194   0.068993338492216
          47.503755296     0.2634118959318
          16.934120165    0.51034501651775
           6.240968059    0.33195512953954
 p    3 1.00
          3.0885463206    0.32917682676976
          1.1791047769    0.55491385190365
         0.43369774432    0.23818412855984
 p    1 1.00
              0.120675                   1
 d    4 1.00
          27.559479426   0.036950140313562
          7.4687020327    0.18821519783039
          2.4345903574    0.44641244239929
         0.78244754808     0.5681617303244
 d    1 1.00
         0.21995774311                   1
 f    1 1.00
                 1.147                   1

3 0
 s    5 1.00
          2266.1767785  -0.0053893503921743
          340.87010191   -0.04023472138896
          77.363135167   -0.18008184205526
           21.47964494   -0.46828857657651
          6.6589433124   -0.44692617160187
 s    1 1.00
         0.80975975668                   1
 s    1 1.00
         0.25530772234                   1
 p    3 1.00
          17.721504317   0.062630248763161
           3.863550544    0.33331138482352
          1.0480920883    0.74148638308122
 p    1 1.00
         0.27641544411                   1
 d    1 1.00
                   1.2                   1

4 0
 s    5 1.00
          1712.8415853  -0.0054477995804909
          257.64812677  -0.040627174632423
          58.458245853   -0.18111962250584
          16.198367905   -0.46843975563173
          5.0052600809   -0.44616846289231
 s    1 1.00
         0.58731856571                   1
 s    1 1.00
         0.18764592253                   1
 p    3 1.00
          13.571470233  -0.058848116969522
          2.9257372874   -0.32024624762471
         0.79927750754   -0.75328226520436
 p    1 1.00
         0.21954348034                   1
 d    1 1.00
                     1                   1

5 0
 s    3 1.00
             13.010701   0.033485484812989
             1.9622572    0.23472187088125
            0.44453796    0.81377028525955
 s    1 1.00
            0.12194962                   1
 p    1 1.00
                   0.8                   1

6 0
 s    3 1.00
             13.010701   0.033485484812989
             1.9622572    0.23472187088125
            0.44453796    0.81377028525955
 s    1 1.00
            0.12194962                   1
 p    1 1.00
                   0.8                   1

7 0
 s    3 1.00
             13.010701   0.033485484812989
             1.9622572    0.23472187088125
            0.44453796    0.81377028525955
 s    1 1.00
            0.12194962                   1
 p    1 1.00
                   0.8                   1

8 0
 s    5 1.00
          1712.8415853  -0.0054477995804909
          257.64812677  -0.040627174632423
          58.458245853   -0.18111962250584
          16.198367905   -0.46843975563173
          5.0052600809   -0.44616846289231
 s    1 1.00
         0.58731856571                   1
 s    1 1.00
         0.18764592253                   1
 p    3 1.00
          13.571470233  -0.058848116969522
          2.9257372874   -0.32024624762471
         0.79927750754   -0.75328226520436
 p    1 1.00
         0.21954348034                   1
 d    1 1.00
                     1                   1

9 0
 s    3 1.00
             13.010701   0.033485484812989
             1.9622572    0.23472187088125
            0.44453796    0.81377028525955
 s    1 1.00
            0.12194962                   1
 p    1 1.00
                   0.8                   1

10 0
 s    3 1.00
             13.010701   0.033485484812989
             1.9622572    0.23472187088125
            0.44453796    0.81377028525955
 s    1 1.00
            0.12194962                   1
 p    1 1.00
                   0.8                   1

11 0
 s    3 1.00
             13.010701   0.033485484812989
             1.9622572    0.23472187088125
            0.44453796    0.81377028525955
 s    1 1.00
            0.12194962                   1
 p    1 1.00
                   0.8                   1

12 0
 s    5 1.00
          1712.8415853  -0.0054477995804909
          257.64812677  -0.040627174632423
          58.458245853   -0.18111962250584
          16.198367905   -0.46843975563173
          5.0052600809   -0.44616846289231
 s    1 1.00
         0.58731856571                   1
 s    1 1.00
         0.18764592253                   1
 p    3 1.00
          13.571470233  -0.058848116969522
          2.9257372874   -0.32024624762471
         0.79927750754   -0.75328226520436
 p    1 1.00
         0.21954348034                   1
 d    1 1.00
                     1                   1

13 0
 s    3 1.00
             13.010701   0.033485484812989
             1.9622572    0.23472187088125
            0.44453796    0.81377028525955
 s    1 1.00
            0.12194962                   1
 p    1 1.00
                   0.8                   1

14 0
 s    3 1.00
             13.010701   0.033485484812989
             1.9622572    0.23472187088125
            0.44453796    0.81377028525955
 s    1 1.00
            0.12194962                   1
 p    1 1.00
                   0.8                   1

15 0
 s    3 1.00
             13.010701   0.033485484812989
             1.9622572    0.23472187088125
            0.44453796    0.81377028525955
 s    1 1.00
            0.12194962                   1
 p    1 1.00
                   0.8                   1

16 0
 s    5 1.00
          1712.8415853  -0.0054477995804909
          257.64812677  -0.040627174632423
          58.458245853   -0.18111962250584
          16.198367905   -0.46843975563173
          5.0052600809   -0.44616846289231
 s    1 1.00
         0.58731856571                   1
 s    1 1.00
         0.18764592253                   1
 p    3 1.00
          13.571470233  -0.058848116969522
          2.9257372874   -0.32024624762471
         0.79927750754   -0.75328226520436
 p    1 1.00
         0.21954348034                   1
 d    1 1.00
                     1                   1

17 0
 s    3 1.00
             13.010701   0.033485484812989
             1.9622572    0.23472187088125
            0.44453796    0.81377028525955
 s    1 1.00
            0.12194962                   1
 p    1 1.00
                   0.8                   1

18 0
 s    3 1.00
             13.010701   0.033485484812989
             1.9622572    0.23472187088125
            0.44453796    0.81377028525955
 s    1 1.00
            0.12194962                   1
 p    1 1.00
                   0.8                   1

19 0
 s    3 1.00
             13.010701   0.033485484812989
             1.9622572    0.23472187088125
            0.44453796    0.81377028525955
 s    1 1.00
            0.12194962                   1
 p    1 1.00
                   0.8                   1

20 0
 s    5 1.00
          1712.8415853  -0.0054477995804909
          257.64812677  -0.040627174632423
          58.458245853   -0.18111962250584
          16.198367905   -0.46843975563173
          5.0052600809   -0.44616846289231
 s    1 1.00
         0.58731856571                   1
 s    1 1.00
         0.18764592253                   1
 p    3 1.00
          13.571470233  -0.058848116969522
          2.9257372874   -0.32024624762471
         0.79927750754   -0.75328226520436
 p    1 1.00
         0.21954348034                   1
 d    1 1.00
                     1                   1

21 0
 s    3 1.00
             13.010701   0.033485484812989
             1.9622572    0.23472187088125
            0.44453796    0.81377028525955
 s    1 1.00
            0.12194962                   1
 p    1 1.00
                   0.8                   1

22 0
 s    3 1.00
             13.010701   0.033485484812989
             1.9622572    0.23472187088125
            0.44453796    0.81377028525955
 s    1 1.00
            0.12194962                   1
 p    1 1.00
                   0.8                   1

23 0
 s    3 1.00
             13.010701   0.033485484812989
             1.9622572    0.23472187088125
            0.44453796    0.81377028525955
 s    1 1.00
            0.12194962                   1
 p    1 1.00
                   0.8                   1

24 0
 s    5 1.00
          1712.8415853  -0.0054477995804909
          257.64812677  -0.040627174632423
          58.458245853   -0.18111962250584
          16.198367905   -0.46843975563173
          5.0052600809   -0.44616846289231
 s    1 1.00
         0.58731856571                   1
 s    1 1.00
         0.18764592253                   1
 p    3 1.00
          13.571470233  -0.058848116969522
          2.9257372874   -0.32024624762471
         0.79927750754   -0.75328226520436
 p    1 1.00
         0.21954348034                   1
 d    1 1.00
                     1                   1

25 0
 s    3 1.00
             13.010701   0.033485484812989
             1.9622572    0.23472187088125
            0.44453796    0.81377028525955
 s    1 1.00
            0.12194962                   1
 p    1 1.00
                   0.8                   1

26 0
 s    3 1.00
             13.010701   0.033485484812989
             1.9622572    0.23472187088125
            0.44453796    0.81377028525955
 s    1 1.00
            0.12194962                   1
 p    1 1.00
                   0.8                   1

27 0
 s    3 1.00
             13.010701   0.033485484812989
             1.9622572    0.23472187088125
            0.44453796    0.81377028525955
 s    1 1.00
            0.12194962                   1
 p    1 1.00
                   0.8                   1

28 0
 s    5 1.00
          1712.8415853  -0.0054477995804909
          257.64812677  -0.040627174632423
          58.458245853   -0.18111962250584
          16.198367905   -0.46843975563173
          5.0052600809   -0.44616846289231
 s    1 1.00
         0.58731856571                   1
 s    1 1.00
         0.18764592253                   1
 p    3 1.00
          13.571470233  -0.058848116969522
          2.9257372874   -0.32024624762471
         0.79927750754   -0.75328226520436
 p    1 1.00
         0.21954348034                   1
 d    1 1.00
                     1                   1

29 0
 s    3 1.00
             13.010701   0.033485484812989
             1.9622572    0.23472187088125
            0.44453796    0.81377028525955
 s    1 1.00
            0.12194962                   1
 p    1 1.00
                   0.8                   1

30 0
 s    3 1.00
             13.010701   0.033485484812989
             1.9622572    0.23472187088125
            0.44453796    0.81377028525955
 s    1 1.00
            0.12194962                   1
 p    1 1.00
                   0.8                   1

31 0
 s    3 1.00
             13.010701   0.033485484812989
             1.9622572    0.23472187088125
            0.44453796    0.81377028525955
 s    1 1.00
            0.12194962                   1
 p    1 1.00
                   0.8                   1

32 0
 s    5 1.00
          1712.8415853  -0.0054477995804909
          257.64812677  -0.040627174632423
          58.458245853   -0.18111962250584
          16.198367905   -0.46843975563173
          5.0052600809   -0.44616846289231
 s    1 1.00
         0.58731856571                   1
 s    1 1.00
         0.18764592253                   1
 p    3 1.00
          13.571470233  -0.058848116969522
          2.9257372874   -0.32024624762471
         0.79927750754   -0.75328226520436
 p    1 1.00
         0.21954348034                   1
 d    1 1.00
                     1                   1

33 0
 s    3 1.00
             13.010701   0.033485484812989
             1.9622572    0.23472187088125
            0.44453796    0.81377028525955
 s    1 1.00
            0.12194962                   1
 p    1 1.00
                   0.8                   1

34 0
 s    3 1.00
             13.010701   0.033485484812989
             1.9622572    0.23472187088125
            0.44453796    0.81377028525955
 s    1 1.00
            0.12194962                   1
 p    1 1.00
                   0.8                   1

35 0
 s    3 1.00
             13.010701   0.033485484812989
             1.9622572    0.23472187088125
            0.44453796    0.81377028525955
 s    1 1.00
            0.12194962                   1
 p    1 1.00
                   0.8                   1

36 0
 s    5 1.00
          1712.8415853  -0.0054477995804909
          257.64812677  -0.040627174632423
          58.458245853   -0.18111962250584
          16.198367905   -0.46843975563173
          5.0052600809   -0.44616846289231
 s    1 1.00
         0.58731856571                   1
 s    1 1.00
         0.18764592253                   1
 p    3 1.00
          13.571470233  -0.058848116969522
          2.9257372874   -0.32024624762471
         0.79927750754   -0.75328226520436
 p    1 1.00
         0.21954348034                   1
 d    1 1.00
                     1                   1

37 0
 s    3 1.00
             13.010701   0.033485484812989
             1.9622572    0.23472187088125
            0.44453796    0.81377028525955
 s    1 1.00
            0.12194962                   1
 p    1 1.00
                   0.8                   1

38 0
 s    3 1.00
             13.010701   0.033485484812989
             1.9622572    0.23472187088125
            0.44453796    0.81377028525955
 s    1 1.00
            0.12194962                   1
 p    1 1.00
                   0.8                   1

39 0
 s    3 1.00
             13.010701   0.033485484812989
             1.9622572    0.23472187088125
            0.44453796    0.81377028525955
 s    1 1.00
            0.12194962                   1
 p    1 1.00
                   0.8                   1

40 0
 s    5 1.00
          1712.8415853  -0.0054477995804909
          257.64812677  -0.040627174632423
          58.458245853   -0.18111962250584
          16.198367905   -0.46843975563173
          5.0052600809   -0.44616846289231
 s    1 1.00
         0.58731856571                   1
 s    1 1.00
         0.18764592253                   1
 p    3 1.00
          13.571470233  -0.058848116969522
          2.9257372874   -0.32024624762471
         0.79927750754   -0.75328226520436
 p    1 1.00
         0.21954348034                   1
 d    1 1.00
                     1                   1

41 0
 s    3 1.00
             13.010701   0.033485484812989
             1.9622572    0.23472187088125
            0.44453796    0.81377028525955
 s    1 1.00
            0.12194962                   1
 p    1 1.00
                   0.8                   1

42 0
 s    3 1.00
             13.010701   0.033485484812989
             1.9622572    0.23472187088125
            0.44453796    0.81377028525955
 s    1 1.00
            0.12194962                   1
 p    1 1.00
                   0.8                   1

43 0
 s    3 1.00
             13.010701   0.033485484812989
             1.9622572    0.23472187088125
            0.44453796    0.81377028525955
 s    1 1.00
            0.12194962                   1
 p    1 1.00
                   0.8                   1

[5d]
[7f]
[9g]

[MO]
 Sym= A
 Ene=               0
 Spin= Alpha
 Occup=    1.00000
   1    -0.0084625466231974
   2    0.0084413524149842
   3     -0.17101872586571
   4    -0.095646381270498
   5    0.0084512141423734
   6    1.5941039901675e-05
   7    -1.6765800463844e-05
   8    2.0841561138353e-05
   9    -0.0011994633978153
  10    0.0018642664229437
  11    0.0012694707085438
  12    -0.014311572657144
  13     0.022746867043803
  14     0.017072350772446
  15    -0.0010968945709819
  16    -0.0064424661191511
  17    0.0098379925797042
  18    -0.0042222052572567
  19    -0.0086763643142008
  20    -0.002176058134355
  21    -0.011848035224557
  22     0.018458714795605
  23    -0.0076325739496635
  24    -0.016015640504557
  25    -7.230808491811e-05
  26    -3.0207014053912e-05
  27    1.9245544070348e-05
  28    -5.9762610503065e-05
  29    -0.00010066384283251
  30    8.0635130913017e-05
  31    2.1222478152784e-05
  32    0.0084639132946387
  33    -0.0084434940311557
  34      0.17104383969017
  35     0.095641186629631
  36    -0.0084558505321939
  37    1.6601844352142e-05
  38    -1.6009923720966e-05
  39    1.987871381719e-05
  40    -0.001200697686023
  41    0.0018625700958811
  42    0.0012717984567492
  43     -0.01433298964304
  44     0.022709748250732
  45     0.017099376714386
  46    0.0013555294905963
  47    0.0062625568282952
  48    -0.010168155434757
  49    0.0039169518234698
  50    0.0085130623436519
  51    0.0023427955351605
  52     0.011729906940354
  53    -0.018676090933604
  54    0.0074325705547903
  55     0.015892505193759
  56    -7.1722987977085e-05
  57    -3.0534430921794e-05
  58    1.8451651728003e-05
  59    -6.0369994006935e-05
  60    -0.00010127180322409
  61    8.0999918337092e-05
  62    2.1146682241501e-05
  63    9.8530410316458e-06
  64    5.6932484844482e-06
  65    -4.5423424658812e-06
  66    -0.023604297565221
  67      0.03738841223445
  68     0.027952772051731
  69    -0.031162371928824
  70     0.049469624771939
  71     0.037112346352072
  72    1.0621945168336e-06
  73    -1.0931113737593e-06
  74    -2.3710676886424e-06
  75    -1.7499858277341e-06
  76    -1.2396941176444e-06
  77    -0.031932832657077
  78     -0.13935397596645
  79     -0.07821812823275
  80    -0.056151094786681
  81    -0.032956296164437
  82    -0.026605047715464
  83     0.053185235063965
  84      0.02432691112555
  85     0.020092073312866
  86    0.00024431705323898
  87    -0.00040987265196024
  88    -9.5141110889476e-05
  89    -0.00070180287045236
  90    -0.00043211020257129
  91    -0.031312704890465
  92    0.0039165987846669
  93    0.0051783581300662
  94    -0.00073279726470938
  95    -0.0022893868113143
  96     -0.02243740481583
  97    0.0048416485803584
  98    0.0021246732364674
  99    0.00013749100844728
 100    0.0043226721028753
 101    -0.018545255781174
 102    0.0062089254069258
 103    0.0011184451205202
 104    0.0042536976059545
 105    0.00086201473062559
 106    -0.031725828708404
 107      -0.1387887732185
 108    -0.077813922939735
 109     0.004697318092132
 110    -0.051241445833209
 111     0.047894229050648
 112    -0.00083344917283555
 113     0.040727350637766
 114    -0.046570894033568
 115    -0.00056799866948105
 116    3.3988672225753e-05
 117    0.00075625892414914
 118    0.00023429825911504
 119    -0.00032230247199985
 120      -0.0166520067364
 121    0.0063205020595306
 122    -0.0024998731683303
 123    0.0035291327445842
 124    -0.00052989753847057
 125    -0.030370468370915
 126    0.0039722438634442
 127    -0.00081520036087118
 128    -0.0010063962852117
 129    -0.0054360601109331
 130    -0.025012164127288
 131    0.0045399418795405
 132    0.0033100312815236
 133      0.00362731061597
 134    -0.0012572087516127
 135    -0.031721995514206
 136     -0.13884848531276
 137    -0.077665258243791
 138     0.009032688738741
 139     0.033401188662946
 140    -0.060310164998557
 141    -0.0047532282220595
 142    -0.034815380748262
 143     0.050111880447925
 144    -0.00036512972580367
 145    -0.0001234979032193
 146    0.00077626360930517
 147    0.00039498919745242
 148    -6.2560265073466e-05
 149    -0.031440281026688
 150    0.0038948671121719
 151    0.00036150337642414
 152    -0.0056950029137807
 153    0.00022959973390146
 154    -0.018492522063538
 155    0.0060521127645281
 156    -0.0031792472715434
 157    -0.00016075712493655
 158    0.0031295729512685
 159    -0.022605904615576
 160    0.0048244518061416
 161    0.0021474433092801
 162    0.00017413192099939
 163    0.0043100450121237
 164    -0.031959919344721
 165     -0.13938401998783
 166    -0.078272915192127
 167     0.067803267205177
 168     0.013642881494324
 169     0.015394224969055
 170    -0.057283263620072
 171     -0.01727926862789
 172    -0.017332192610537
 173    0.00018980525410772
 174    -0.00043873972132667
 175    -0.00017180631932244
 176    -0.00050070842688205
 177    -0.00070211928456323
 178     -0.02376155991898
 179    0.0047770082735759
 180    -0.0034912156125931
 181    -0.0026016578378729
 182    0.0023951850320888
 183    -0.030725112471405
 184    0.0039171556259541
 185    -0.0015472020167585
 186     -0.00259771042111
 187    -0.0047622598140084
 188    -0.017496131042179
 189     0.006375762575976
 190    -0.0036870568831629
 191    0.0023846217091102
 192    -0.00037276718039371
 193    -0.027089839870182
 194     -0.12967342440672
 195    -0.064085940164778
 196     -0.01586038114031
 197     0.025110674723372
 198     0.018686484521646
 199     0.019054421087426
 200    -0.029939995840909
 201     -0.02213047060975
 202    0.00010837527451081
 203    0.0006108426862398
 204    -0.00097753727889968
 205    0.00039798458014234
 206    0.00082553206707838
 207    -0.030831380332473
 208    0.0023398140501972
 209    0.0020674954563093
 210    0.0018886670451442
 211    -0.0045175070925793
 212    -0.030815300549707
 213    0.0023409171979018
 214    -0.0033019021538801
 215    -0.0039346605602386
 216    -0.0012937496972118
 217    -0.031262728960782
 218    0.0027074763448961
 219    0.0040187558872871
 220    -0.0022094794197527
 221    0.0027560834100943
 222     0.031732886813243
 223      0.13886454019906
 224     0.077787839545515
 225    -0.055413484033562
 226    -0.032949131689324
 227    -0.026373485782781
 228     0.052657489632837
 229     0.024289603022884
 230     0.019888669918039
 231    -0.00022116878197021
 232    0.00041099668152103
 233    7.6575540631639e-05
 234    0.00072348465656524
 235    0.00043153625628285
 236      0.01813330092961
 237    -0.0062331807443785
 238    0.0010008250748651
 239    0.0042008954102835
 240    0.0010382081399406
 241     0.022993239428301
 242    -0.0046765733941071
 243    0.0022459436624282
 244    -8.4363352314828e-05
 245    0.0042982379156707
 246     0.031325412011752
 247    -0.0039248178134095
 248    0.0051085279809864
 249    -0.00046829673220307
 250    -0.0024697875465128
 251     0.031944234940034
 252      0.13934418627277
 253     0.078279582400232
 254    0.0045444111747634
 255    -0.051479714014328
 256     0.048613375466445
 257    -0.0007462937854161
 258     0.040928369274281
 259    -0.047068256335209
 260    0.00056108338221217
 261    -4.4456718855883e-05
 262    -0.0007504576922696
 263    -0.00025817227375445
 264    0.00029350530032617
 265     0.030513208598241
 266    -0.0039814962797113
 267    -0.00047076212836498
 268    -0.0010459423041462
 269    -0.0054951538733376
 270     0.017030406320994
 271    -0.0063699165785841
 272    -0.0026365858198448
 273    0.0034351869705252
 274    -0.00069100529522616
 275     0.024348258856005
 276    -0.0046841794603282
 277    0.0031120470673416
 278    0.0037835036945876
 279    -0.0011097028378167
 280     0.031760924786063
 281      0.13889790150276
 282     0.077822934521218
 283     0.067206728510635
 284     0.013245760192599
 285     0.015126601662908
 286    -0.056848941319097
 287    -0.016985421512478
 288    -0.017155629836758
 289    -0.00017664613465417
 290    0.00044180704911949
 291    0.00015659283798659
 292    0.00049542140421653
 293    0.00072217825983908
 294     0.030639217093851
 295    -0.0038938900175259
 296    -0.0015721878545563
 297    -0.0023620698584783
 298    -0.0048522695072277
 299     0.024262247582861
 300    -0.0046657767025459
 301    -0.0034238434380977
 302    -0.0027832272834438
 303    0.0023440900515985
 304     0.017258113364049
 305    -0.0063216105225338
 306    -0.0036832246732079
 307    0.0023722244434442
 308    -0.00020172251112784
 309     0.031917910350492
 310      0.13933798562423
 311     0.078106341761085
 312    0.0088299289820456
 313     0.033874781183088
 314    -0.060874940008908
 315    -0.004605592732828
 316    -0.035169654217251
 317     0.050563082299353
 318    0.00036325009577798
 319    9.2830409482167e-05
 320    -0.00077800032814769
 321    -0.0003854225837438
 322    5.1849444168646e-05
 323      0.03142379702583
 324    -0.0038867541952681
 325    0.00066527241079143
 326    -0.0056789737323189
 327    0.00029085436404037
 328     0.022081710322089
 329    -0.0049780988869112
 330    0.0019600866375423
 331     0.000298557512233
 332    0.0043622979363091
 333     0.018838331133845
 334    -0.0059984050479588
 335    -0.0032709931904669
 336    -0.00033698872377704
 337    0.0030762704459963
 338     0.027097678382612
 339      0.12969733065061
 340      0.06410621391126
 341    -0.015871238485683
 342     0.025127580840969
 343     0.018696277099782
 344     0.019070675088556