[Molden Format]
made by pyscf v[2.1.1]
[Atoms] (AU)
Cr   1   24     1.56143912275337    -2.46507591990239    -1.82404491365355
Cr   2   24    -1.56139565905251     2.46513072196000     1.82399011159594
O   3   8     0.00002078698737     0.00002834589187    -0.00002645616574
N   4   7     5.12832174930954    -1.10581670549011    -0.60767356069801
H   5   1     6.65216855026694    -1.66292686427314    -1.66487895135981
H   6   1     5.63710405218294    -1.59213394419468     1.18765885421890
H   7   1     5.20084187906585     0.81566059741989    -0.65509245834172
N   8   7     1.71230729763415    -0.02251608677419    -4.99594076510539
H   9   1     0.29795878723855     1.27247165241550    -4.90823668593820
H   10   1     1.50271021425414    -0.85583806455427    -6.73026148236459
H   11   1     3.34039895052705     0.99863710888315    -5.18656310846864
N   12   7     1.41057094787259    -4.90763575303059     1.34785282752440
H   13   1     1.64193389675534    -6.79355407945465     0.97314659318890
H   14   1    -0.29048681014202    -4.81040367474334     2.24006056107205
H   15   1     2.72468082571676    -4.56691435331926     2.71738081369757
N   16   7    -2.00544350380280    -3.82433513431467    -3.04041437688297
H   17   1    -2.87205678671934    -5.05516478184926    -1.83221042023780
H   18   1    -2.03637832046193    -4.76397121413665    -4.73247136936628
H   19   1    -3.24475802163669    -2.37551046050250    -3.28123540501917
N   20   7     3.37923471211299    -5.33493873459111    -3.94755661599306
H   21   1     4.17102617885350    -4.76109883042731    -5.61685374703210
H   22   1     2.26176595533881    -6.82326057413281    -4.47610923358166
H   23   1     4.85383336053810    -6.19899521806112    -3.03922195969837
N   24   7    -5.12827828560868     1.10587339727385     0.60762064836653
H   25   1    -5.15408816501799    -0.81544705836782     0.54662784797006
H   26   1    -5.69743166898356     1.68113626520945    -1.14337690194197
H   27   1    -6.63528195761783     1.56841410187914     1.73267665553083
N   28   7    -1.71226383393328     0.02257088883181     4.99588785277390
H   29   1    -1.62991523860311     0.86667375415253     6.73575491620870
H   30   1    -0.22416876152653    -1.19157625647512     4.98456461383551
H   31   1    -3.28782110056328    -1.08746368536834     5.11339858210385
N   32   7     2.00548696750367     3.82438993637228     3.04035957482536
H   33   1     2.05186651577887     4.68410571893416     4.77402266739321
H   34   1     2.83712330958063     5.12208376337235     1.87805706574587
H   35   1     3.26582090902109     2.38241174030942     3.19051154350492
N   36   7    -1.41052748417173     4.90769055508820    -1.34790762958202
H   37   1    -1.75003190025884     6.78104976168840    -0.99229329828299
H   38   1    -2.65834387984003     4.49309409198925    -2.75785496783350
H   39   1     0.32278033988471     4.89894112313146    -2.18344058692784
N   40   7    -3.37919124841212     5.33499353664873     3.94750181393545
H   41   1    -2.26357064378777     6.83195331430581     4.45515784003860
H   42   1    -4.15358022727151     4.76963661305810     5.62761006813313
H   43   1    -4.86681766873998     6.18449345978121     3.04686590187224
[GTO]
1 0
 s    6 1.00
          51528.086349  0.0017695545768669
          7737.2103487   0.013556436258096
           1760.374847   0.067162645785071
          496.87706544    0.23295905918518
          161.46520598    0.47040576982722
          55.466352268    0.35733072606876
 s    3 1.00
          107.54732999   -0.10605255446629
          12.408671897    0.62543981484169
          5.0423628826    0.44878820793655
 s    3 1.00
          8.5461640165   -0.21819012081133
          1.3900441221    0.70422525667731
         0.56066602876    0.42488555412558
 s    1 1.00
        0.071483705972                   1
 s    1 1.00
        0.028250687604                   1
 p    5 1.00
          640.48536096  0.0093555063746755
          150.69711194   0.068993338492216
          47.503755296     0.2634118959318
          16.934120165    0.51034501651775
           6.240968059    0.33195512953954
 p    3 1.00
          3.0885463206    0.32917682676976
          1.1791047769    0.55491385190365
         0.43369774432    0.23818412855984
 p    1 1.00
              0.120675                   1
 d    4 1.00
          27.559479426   0.036950140313562
          7.4687020327    0.18821519783039
          2.4345903574    0.44641244239929
         0.78244754808     0.5681617303244
 d    1 1.00
         0.21995774311                   1
 f    1 1.00
                 1.147                   1

2 0
 s    6 1.00
          51528.086349  0.0017695545768669
          7737.2103487   0.013556436258096
           1760.374847   0.067162645785071
          496.87706544    0.23295905918518
          161.46520598    0.47040576982722
          55.466352268    0.35733072606876
 s    3 1.00
          107.54732999   -0.10605255446629
          12.408671897    0.62543981484169
          5.0423628826    0.44878820793655
 s    3 1.00
          8.5461640165   -0.21819012081133
          1.3900441221    0.70422525667731
         0.56066602876    0.42488555412558
 s    1 1.00
        0.071483705972                   1
 s    1 1.00
        0.028250687604                   1
 p    5 1.00
          640.48536096  0.0093555063746755
          150.69711194   0.068993338492216
          47.503755296     0.2634118959318
          16.934120165    0.51034501651775
           6.240968059    0.33195512953954
 p    3 1.00
          3.0885463206    0.32917682676976
          1.1791047769    0.55491385190365
         0.43369774432    0.23818412855984
 p    1 1.00
              0.120675                   1
 d    4 1.00
          27.559479426   0.036950140313562
          7.4687020327    0.18821519783039
          2.4345903574    0.44641244239929
         0.78244754808     0.5681617303244
 d    1 1.00
         0.21995774311                   1
 f    1 1.00
                 1.147                   1

3 0
 s    5 1.00
          2266.1767785  -0.0053893503921743
          340.87010191   -0.04023472138896
          77.363135167   -0.18008184205526
           21.47964494   -0.46828857657651
          6.6589433124   -0.44692617160187
 s    1 1.00
         0.80975975668                   1
 s    1 1.00
         0.25530772234                   1
 p    3 1.00
          17.721504317   0.062630248763161
           3.863550544    0.33331138482352
          1.0480920883    0.74148638308122
 p    1 1.00
         0.27641544411                   1
 d    1 1.00
                   1.2                   1

4 0
 s    5 1.00
          1712.8415853  -0.0054477995804909
          257.64812677  -0.040627174632423
          58.458245853   -0.18111962250584
          16.198367905   -0.46843975563173
          5.0052600809   -0.44616846289231
 s    1 1.00
         0.58731856571                   1
 s    1 1.00
         0.18764592253                   1
 p    3 1.00
          13.571470233  -0.058848116969522
          2.9257372874   -0.32024624762471
         0.79927750754   -0.75328226520436
 p    1 1.00
         0.21954348034                   1
 d    1 1.00
                     1                   1

5 0
 s    3 1.00
             13.010701   0.033485484812989
             1.9622572    0.23472187088125
            0.44453796    0.81377028525955
 s    1 1.00
            0.12194962                   1
 p    1 1.00
                   0.8                   1

6 0
 s    3 1.00
             13.010701   0.033485484812989
             1.9622572    0.23472187088125
            0.44453796    0.81377028525955
 s    1 1.00
            0.12194962                   1
 p    1 1.00
                   0.8                   1

7 0
 s    3 1.00
             13.010701   0.033485484812989
             1.9622572    0.23472187088125
            0.44453796    0.81377028525955
 s    1 1.00
            0.12194962                   1
 p    1 1.00
                   0.8                   1

8 0
 s    5 1.00
          1712.8415853  -0.0054477995804909
          257.64812677  -0.040627174632423
          58.458245853   -0.18111962250584
          16.198367905   -0.46843975563173
          5.0052600809   -0.44616846289231
 s    1 1.00
         0.58731856571                   1
 s    1 1.00
         0.18764592253                   1
 p    3 1.00
          13.571470233  -0.058848116969522
          2.9257372874   -0.32024624762471
         0.79927750754   -0.75328226520436
 p    1 1.00
         0.21954348034                   1
 d    1 1.00
                     1                   1

9 0
 s    3 1.00
             13.010701   0.033485484812989
             1.9622572    0.23472187088125
            0.44453796    0.81377028525955
 s    1 1.00
            0.12194962                   1
 p    1 1.00
                   0.8                   1

10 0
 s    3 1.00
             13.010701   0.033485484812989
             1.9622572    0.23472187088125
            0.44453796    0.81377028525955
 s    1 1.00
            0.12194962                   1
 p    1 1.00
                   0.8                   1

11 0
 s    3 1.00
             13.010701   0.033485484812989
             1.9622572    0.23472187088125
            0.44453796    0.81377028525955
 s    1 1.00
            0.12194962                   1
 p    1 1.00
                   0.8                   1

12 0
 s    5 1.00
          1712.8415853  -0.0054477995804909
          257.64812677  -0.040627174632423
          58.458245853   -0.18111962250584
          16.198367905   -0.46843975563173
          5.0052600809   -0.44616846289231
 s    1 1.00
         0.58731856571                   1
 s    1 1.00
         0.18764592253                   1
 p    3 1.00
          13.571470233  -0.058848116969522
          2.9257372874   -0.32024624762471
         0.79927750754   -0.75328226520436
 p    1 1.00
         0.21954348034                   1
 d    1 1.00
                     1                   1

13 0
 s    3 1.00
             13.010701   0.033485484812989
             1.9622572    0.23472187088125
            0.44453796    0.81377028525955
 s    1 1.00
            0.12194962                   1
 p    1 1.00
                   0.8                   1

14 0
 s    3 1.00
             13.010701   0.033485484812989
             1.9622572    0.23472187088125
            0.44453796    0.81377028525955
 s    1 1.00
            0.12194962                   1
 p    1 1.00
                   0.8                   1

15 0
 s    3 1.00
             13.010701   0.033485484812989
             1.9622572    0.23472187088125
            0.44453796    0.81377028525955
 s    1 1.00
            0.12194962                   1
 p    1 1.00
                   0.8                   1

16 0
 s    5 1.00
          1712.8415853  -0.0054477995804909
          257.64812677  -0.040627174632423
          58.458245853   -0.18111962250584
          16.198367905   -0.46843975563173
          5.0052600809   -0.44616846289231
 s    1 1.00
         0.58731856571                   1
 s    1 1.00
         0.18764592253                   1
 p    3 1.00
          13.571470233  -0.058848116969522
          2.9257372874   -0.32024624762471
         0.79927750754   -0.75328226520436
 p    1 1.00
         0.21954348034                   1
 d    1 1.00
                     1                   1

17 0
 s    3 1.00
             13.010701   0.033485484812989
             1.9622572    0.23472187088125
            0.44453796    0.81377028525955
 s    1 1.00
            0.12194962                   1
 p    1 1.00
                   0.8                   1

18 0
 s    3 1.00
             13.010701   0.033485484812989
             1.9622572    0.23472187088125
            0.44453796    0.81377028525955
 s    1 1.00
            0.12194962                   1
 p    1 1.00
                   0.8                   1

19 0
 s    3 1.00
             13.010701   0.033485484812989
             1.9622572    0.23472187088125
            0.44453796    0.81377028525955
 s    1 1.00
            0.12194962                   1
 p    1 1.00
                   0.8                   1

20 0
 s    5 1.00
          1712.8415853  -0.0054477995804909
          257.64812677  -0.040627174632423
          58.458245853   -0.18111962250584
          16.198367905   -0.46843975563173
          5.0052600809   -0.44616846289231
 s    1 1.00
         0.58731856571                   1
 s    1 1.00
         0.18764592253                   1
 p    3 1.00
          13.571470233  -0.058848116969522
          2.9257372874   -0.32024624762471
         0.79927750754   -0.75328226520436
 p    1 1.00
         0.21954348034                   1
 d    1 1.00
                     1                   1

21 0
 s    3 1.00
             13.010701   0.033485484812989
             1.9622572    0.23472187088125
            0.44453796    0.81377028525955
 s    1 1.00
            0.12194962                   1
 p    1 1.00
                   0.8                   1

22 0
 s    3 1.00
             13.010701   0.033485484812989
             1.9622572    0.23472187088125
            0.44453796    0.81377028525955
 s    1 1.00
            0.12194962                   1
 p    1 1.00
                   0.8                   1

23 0
 s    3 1.00
             13.010701   0.033485484812989
             1.9622572    0.23472187088125
            0.44453796    0.81377028525955
 s    1 1.00
            0.12194962                   1
 p    1 1.00
                   0.8                   1

24 0
 s    5 1.00
          1712.8415853  -0.0054477995804909
          257.64812677  -0.040627174632423
          58.458245853   -0.18111962250584
          16.198367905   -0.46843975563173
          5.0052600809   -0.44616846289231
 s    1 1.00
         0.58731856571                   1
 s    1 1.00
         0.18764592253                   1
 p    3 1.00
          13.571470233  -0.058848116969522
          2.9257372874   -0.32024624762471
         0.79927750754   -0.75328226520436
 p    1 1.00
         0.21954348034                   1
 d    1 1.00
                     1                   1

25 0
 s    3 1.00
             13.010701   0.033485484812989
             1.9622572    0.23472187088125
            0.44453796    0.81377028525955
 s    1 1.00
            0.12194962                   1
 p    1 1.00
                   0.8                   1

26 0
 s    3 1.00
             13.010701   0.033485484812989
             1.9622572    0.23472187088125
            0.44453796    0.81377028525955
 s    1 1.00
            0.12194962                   1
 p    1 1.00
                   0.8                   1

27 0
 s    3 1.00
             13.010701   0.033485484812989
             1.9622572    0.23472187088125
            0.44453796    0.81377028525955
 s    1 1.00
            0.12194962                   1
 p    1 1.00
                   0.8                   1

28 0
 s    5 1.00
          1712.8415853  -0.0054477995804909
          257.64812677  -0.040627174632423
          58.458245853   -0.18111962250584
          16.198367905   -0.46843975563173
          5.0052600809   -0.44616846289231
 s    1 1.00
         0.58731856571                   1
 s    1 1.00
         0.18764592253                   1
 p    3 1.00
          13.571470233  -0.058848116969522
          2.9257372874   -0.32024624762471
         0.79927750754   -0.75328226520436
 p    1 1.00
         0.21954348034                   1
 d    1 1.00
                     1                   1

29 0
 s    3 1.00
             13.010701   0.033485484812989
             1.9622572    0.23472187088125
            0.44453796    0.81377028525955
 s    1 1.00
            0.12194962                   1
 p    1 1.00
                   0.8                   1

30 0
 s    3 1.00
             13.010701   0.033485484812989
             1.9622572    0.23472187088125
            0.44453796    0.81377028525955
 s    1 1.00
            0.12194962                   1
 p    1 1.00
                   0.8                   1

31 0
 s    3 1.00
             13.010701   0.033485484812989
             1.9622572    0.23472187088125
            0.44453796    0.81377028525955
 s    1 1.00
            0.12194962                   1
 p    1 1.00
                   0.8                   1

32 0
 s    5 1.00
          1712.8415853  -0.0054477995804909
          257.64812677  -0.040627174632423
          58.458245853   -0.18111962250584
          16.198367905   -0.46843975563173
          5.0052600809   -0.44616846289231
 s    1 1.00
         0.58731856571                   1
 s    1 1.00
         0.18764592253                   1
 p    3 1.00
          13.571470233  -0.058848116969522
          2.9257372874   -0.32024624762471
         0.79927750754   -0.75328226520436
 p    1 1.00
         0.21954348034                   1
 d    1 1.00
                     1                   1

33 0
 s    3 1.00
             13.010701   0.033485484812989
             1.9622572    0.23472187088125
            0.44453796    0.81377028525955
 s    1 1.00
            0.12194962                   1
 p    1 1.00
                   0.8                   1

34 0
 s    3 1.00
             13.010701   0.033485484812989
             1.9622572    0.23472187088125
            0.44453796    0.81377028525955
 s    1 1.00
            0.12194962                   1
 p    1 1.00
                   0.8                   1

35 0
 s    3 1.00
             13.010701   0.033485484812989
             1.9622572    0.23472187088125
            0.44453796    0.81377028525955
 s    1 1.00
            0.12194962                   1
 p    1 1.00
                   0.8                   1

36 0
 s    5 1.00
          1712.8415853  -0.0054477995804909
          257.64812677  -0.040627174632423
          58.458245853   -0.18111962250584
          16.198367905   -0.46843975563173
          5.0052600809   -0.44616846289231
 s    1 1.00
         0.58731856571                   1
 s    1 1.00
         0.18764592253                   1
 p    3 1.00
          13.571470233  -0.058848116969522
          2.9257372874   -0.32024624762471
         0.79927750754   -0.75328226520436
 p    1 1.00
         0.21954348034                   1
 d    1 1.00
                     1                   1

37 0
 s    3 1.00
             13.010701   0.033485484812989
             1.9622572    0.23472187088125
            0.44453796    0.81377028525955
 s    1 1.00
            0.12194962                   1
 p    1 1.00
                   0.8                   1

38 0
 s    3 1.00
             13.010701   0.033485484812989
             1.9622572    0.23472187088125
            0.44453796    0.81377028525955
 s    1 1.00
            0.12194962                   1
 p    1 1.00
                   0.8                   1

39 0
 s    3 1.00
             13.010701   0.033485484812989
             1.9622572    0.23472187088125
            0.44453796    0.81377028525955
 s    1 1.00
            0.12194962                   1
 p    1 1.00
                   0.8                   1

40 0
 s    5 1.00
          1712.8415853  -0.0054477995804909
          257.64812677  -0.040627174632423
          58.458245853   -0.18111962250584
          16.198367905   -0.46843975563173
          5.0052600809   -0.44616846289231
 s    1 1.00
         0.58731856571                   1
 s    1 1.00
         0.18764592253                   1
 p    3 1.00
          13.571470233  -0.058848116969522
          2.9257372874   -0.32024624762471
         0.79927750754   -0.75328226520436
 p    1 1.00
         0.21954348034                   1
 d    1 1.00
                     1                   1

41 0
 s    3 1.00
             13.010701   0.033485484812989
             1.9622572    0.23472187088125
            0.44453796    0.81377028525955
 s    1 1.00
            0.12194962                   1
 p    1 1.00
                   0.8                   1

42 0
 s    3 1.00
             13.010701   0.033485484812989
             1.9622572    0.23472187088125
            0.44453796    0.81377028525955
 s    1 1.00
            0.12194962                   1
 p    1 1.00
                   0.8                   1

43 0
 s    3 1.00
             13.010701   0.033485484812989
             1.9622572    0.23472187088125
            0.44453796    0.81377028525955
 s    1 1.00
            0.12194962                   1
 p    1 1.00
                   0.8                   1

[5d]
[7f]
[9g]

[MO]
 Sym= A
 Ene=               0
 Spin= Alpha
 Occup=    1.00000
   1    1.6036919691965e-05
   2    -2.5533615385058e-05
   3    0.00029322391688339
   4    -1.4774355664023e-05
   5    0.00033157422209716
   6    1.7526133469561e-05
   7    -2.6451873541781e-06
   8    -1.5696319568519e-05
   9    -5.7774332077872e-05
  10    5.3944600671396e-06
  11    5.2159967709446e-05
  12    9.8728237717163e-05
  13    0.00018350240521966
  14    -0.00014253025782807
  15    -0.00022835713312321
  16    0.00025486261161285
  17    0.00017407001614094
  18    0.00025363529253391
  19    0.00025103198640998
  20    -0.00083015463488318
  21    0.00062082900028398
  22    0.00089303092406586
  23    0.00076397204764183
  24    0.00051035994509214
  25    1.8913599937699e-05
  26    -1.0886085547807e-05
  27    -7.5209317887224e-06
  28    1.1498648943373e-05
  29    8.9415908611297e-06
  30    1.5581749639462e-05
  31    -1.5072544602337e-05
  32    -1.2506491837557e-05
  33    1.009075513533e-05
  34    -0.00026028594931362
  35    -0.00024876855870917
  36    -0.00039417893744882
  37    -8.7165788557293e-05
  38    -0.0001476102875802
  39    6.4974307332641e-05
  40    0.00026956725951143
  41    0.00046132584969894
  42    -0.00020673357794777
  43    0.00021065734067855
  44    -3.6377472989185e-05
  45    2.6497933321708e-05
  46     0.095146407181414
  47    -0.062155461701528
  48      -0.1200097600892
  49     -0.10751141450962
  50     -0.05749439786761
  51     0.069581133393637
  52    -0.045472508799703
  53    -0.087545534198836
  54     -0.07801821133101
  55    -0.042007150002769
  56    0.00051521727869921
  57    -0.000426551793955
  58    -0.00016902023119078
  59    0.00029552687546826
  60    -5.350331330298e-05
  61    0.00055890723774424
  62    -0.00032362449737416
  63    3.4247342823299e-05
  64    0.00027762335523223
  65    7.4472379060867e-05
  66    2.5389553827702e-05
  67    0.00071399080688218
  68    9.8430899491705e-05
  69    -2.1349599873239e-05
  70    0.00044526805786546
  71    0.00019407300213271
  72    0.00039250716941628
  73    -0.00026543665756677
  74    -0.00049659970698744
  75    -0.0004379600838014
  76    -0.00024097789482683
  77    -0.00016887722048819
  78    0.00041610395529034
  79    -0.0026235561495803
  80    0.00044035535000965
  81    0.00094023605733017
  82    0.00071154427874716
  83    0.0016806434511684
  84    -0.0018720468717211
  85    -0.0013833461992711
  86    8.4665112200002e-06
  87    -9.3434804532098e-05
  88    5.1165107997276e-05
  89    0.00011102444250477
  90    -5.3341879993937e-05
  91    -8.773763693322e-05
  92    -0.00054585399364247
  93    5.8213353122352e-05
  94    -3.910644441667e-05
  95    -0.00014586322888677
  96    -3.27659137963e-05
  97    -3.4338691670649e-05
  98    -0.00017977161996747
  99    0.00010281126922577
 100    5.4477351639774e-05
 101    -5.4310191132935e-05
 102    0.00074690372389329
 103    3.7405804680309e-05
 104    -5.8894344137781e-05
 105    9.3858674848933e-05
 106    0.00021162054448262
 107    5.4721018554901e-05
 108    0.0017129078738774
 109    0.00051535671185629
 110    -0.0010716983813659
 111    0.00016097819994556
 112    -0.0008099766428277
 113    0.0012794983485319
 114    0.0016463346201699
 115    -8.5393423228148e-05
 116    5.4091935750761e-06
 117    -7.7362321687388e-05
 118    9.6358216690023e-06
 119    -5.3677938785674e-05
 120    0.00032858860441009
 121    0.00027618814510843
 122    -5.9948717933419e-05
 123    -0.00010782606640515
 124    0.00023050982115179
 125    0.00022781299901317
 126    0.00018869573913889
 127    7.3566090781322e-05
 128    0.00011106032374732
 129    6.3362981647205e-05
 130    6.7973144682458e-05
 131    -0.00015702628055285
 132    1.0391916315977e-05
 133    -6.6254159166577e-05
 134    -0.00018262106969273
 135    0.00024773639478949
 136    -8.7520105451665e-05
 137    0.0029149100860279
 138    0.00043268558402773
 139    -0.00010672930186806
 140    -0.0010613203830555
 141    -0.0012405144943113
 142    0.0023938369539746
 143    0.0010683323781062
 144    4.5241482875961e-05
 145    -2.2378722815058e-05
 146    -3.4903183855652e-05
 147    0.00015187433511801
 148    3.3456992783453e-05
 149    0.00015652881429746
 150    0.00043686162145948
 151    1.9959991970334e-05
 152    0.00013508082754601
 153    0.00010159575641028
 154    0.00011185581737125
 155    -0.0007549591645303
 156    -8.9936892319741e-05
 157    -1.3930959181995e-05
 158    -6.9038874410452e-05
 159    9.2341481347173e-05
 160    -1.2032884893785e-05
 161    8.6596421186822e-05
 162    -0.0001935308328066
 163    -1.5113766374063e-05
 164    -0.00015455972297841
 165    0.00032094639801509
 166    -0.0018713608701957
 167    -0.0011982178709935
 168    0.00037312956606192
 169    0.00013178040847861
 170    0.00070057701057407
 171    -0.0018516457643436
 172    -0.0015997959537463
 173    8.8626915122628e-05
 174    -1.1874138471725e-05
 175    9.936625876994e-05
 176    -2.3269657394435e-05
 177    4.2057306693526e-05
 178    -1.6651781522374e-05
 179    -4.0677418753961e-07
 180    2.0192536017431e-05
 181    0.00014333731976383
 182    0.00015324232024995
 183    -0.00014064469637243
 184    -0.00040518344347822
 185    6.6518062960607e-05
 186    -4.1623901267705e-06
 187    -0.0001389065769982
 188    -0.0001407982903165
 189    1.4519518992267e-05
 190    -0.00011260208669394
 191    -0.00011452433355082
 192    -2.1925923788868e-05
 193    5.0223935263265e-05
 194    0.00018604366173894
 195    0.00021665138052709
 196    3.3043331204079e-05
 197    -0.000100457097957
 198    -4.392700738714e-05
 199    -2.0553063307092e-05
 200    0.00014857669716226
 201    4.1226441167744e-05
 202    -4.2245219808981e-06
 203    2.8325913514398e-06
 204    4.577190808159e-06
 205    2.2357347221991e-06
 206    1.7041798820656e-06
 207    -1.2503716729399e-05
 208    2.6101903310772e-05
 209    1.3907750001567e-06
 210    -1.4389935191536e-05
 211    1.2866625327869e-05
 212    6.6036274203233e-05
 213    -9.9767004438152e-05
 214    -1.2917960809619e-05
 215    5.3867147988229e-06
 216    -1.5652938478136e-06
 217    3.2933315269376e-05
 218    -4.9982064932759e-05
 219    3.9899307094918e-06
 220    1.0825818652071e-05
 221    -4.8216412737731e-06
 222    -0.060607245508861
 223     -0.15375985397473
 224     -0.13234357861081
 225       0.2118354355774
 226     0.086522865059366
 227     0.071706559221789
 228       -0.147837960522
 229    -0.066074800899268
 230    -0.051603782590492
 231    0.00023519684875576
 232    -0.00028466808320701
 233    -0.0004695938241889
 234    -0.00012029323542272
 235    -0.00021753480079828
 236     0.016487010009816
 237     0.019618325054006
 238    -0.0072601899298367
 239    -0.00046051742247152
 240    -0.0017596775196248
 241     0.025319900274886
 242     0.018877908867839
 243    -0.0060669975166235
 244    -0.0034046768666056
 245    0.00090532774691559
 246     0.025126718625404
 247     0.016077807954046
 248    -0.0040431822082634
 249    -0.0038976074329155
 250    -0.0045594352799379
 251     0.060117608612901
 252      0.15209100428847
 253      0.13182398720666
 254    -0.0041744888169583
 255     -0.14908633062569
 256      0.18704779122207
 257    -0.00067292835807295
 258      0.10969632515598
 259     -0.13046557211371
 260    0.00013593422119529
 261    -0.00014494689456385
 262    -0.00043993594836244
 263    -0.0003833314310006
 264    -0.00031305286212686
 265    -0.026141949108074
 266    -0.016110300438675
 267    0.00018106367181928
 268    0.0065782715249903
 269    -0.0026505927550566
 270    -0.015425343076051
 271    -0.019916256762828
 272    0.0017467816660822
 273    0.0031190998516875
 274    -0.0065724562059759
 275     -0.02509324483845
 276    -0.017145237386759
 277    -0.0023103402323283
 278     0.002622596280764
 279    -0.005970769639033
 280    -0.060318593888407
 281     -0.15279749582077
 282     -0.13230932540158
 283     -0.21581392543616
 284    -0.075789434794487
 285    -0.071827707905339
 286      0.15596397238132
 287     0.049144547434342
 288     0.049096732297104
 289    0.00041507569845393
 290    -0.00016147517572371
 291    -0.0002996424763144
 292    -0.00043352673617218
 293    -2.7507194728379e-05
 294     0.026052505258397
 295     0.016184082797361
 296    0.0070153540739548
 297    0.00065716908344263
 298    -0.0010593974487145
 299     0.024950629411114
 300     0.017550180846555
 301    0.0053207898060138
 302    0.00056869882647763
 303     0.004421647297389
 304     0.015551728746638
 305     0.019879131846515
 306     0.005489327990575
 307    0.0042914012491003
 308    0.0027393834055738
 309     0.060501974073854
 310      0.15334587431811
 311      0.13196666668672
 312      0.01263026565842
 313      0.14462636507186
 314     -0.19016966147083
 315    -0.012304190837741
 316    -0.099946001957458
 317      0.13638401097628
 318    0.00043585243289602
 319    -0.00027594971075739
 320    -0.00026098446695001
 321    -0.0001678152709062
 322    -0.00015105544239381
 323    -0.025210837696163
 324      -0.0156029494012
 325    -0.0011977589118558
 326    -0.0010799328135092
 327     0.007099577907219
 328     -0.02390355442008
 329    -0.019202586117709
 330    -0.002087318951888
 331    -0.0056952157341911
 332    0.0036417122598324
 333    -0.018120726153486
 334    -0.019353906039049
 335     0.001737489321395
 336    -0.0053105966768986
 337     0.004853826970768
 338    3.5359132762385e-05
 339    -1.6504000302846e-05