[Molden Format]
made by pyscf v[2.1.1]
[Atoms] (AU)
Cr   1   24     1.56143912275337    -2.46507591990239    -1.82404491365355
Cr   2   24    -1.56139565905251     2.46513072196000     1.82399011159594
O   3   8     0.00002078698737     0.00002834589187    -0.00002645616574
N   4   7     5.12832174930954    -1.10581670549011    -0.60767356069801
H   5   1     6.65216855026694    -1.66292686427314    -1.66487895135981
H   6   1     5.63710405218294    -1.59213394419468     1.18765885421890
H   7   1     5.20084187906585     0.81566059741989    -0.65509245834172
N   8   7     1.71230729763415    -0.02251608677419    -4.99594076510539
H   9   1     0.29795878723855     1.27247165241550    -4.90823668593820
H   10   1     1.50271021425414    -0.85583806455427    -6.73026148236459
H   11   1     3.34039895052705     0.99863710888315    -5.18656310846864
N   12   7     1.41057094787259    -4.90763575303059     1.34785282752440
H   13   1     1.64193389675534    -6.79355407945465     0.97314659318890
H   14   1    -0.29048681014202    -4.81040367474334     2.24006056107205
H   15   1     2.72468082571676    -4.56691435331926     2.71738081369757
N   16   7    -2.00544350380280    -3.82433513431467    -3.04041437688297
H   17   1    -2.87205678671934    -5.05516478184926    -1.83221042023780
H   18   1    -2.03637832046193    -4.76397121413665    -4.73247136936628
H   19   1    -3.24475802163669    -2.37551046050250    -3.28123540501917
N   20   7     3.37923471211299    -5.33493873459111    -3.94755661599306
H   21   1     4.17102617885350    -4.76109883042731    -5.61685374703210
H   22   1     2.26176595533881    -6.82326057413281    -4.47610923358166
H   23   1     4.85383336053810    -6.19899521806112    -3.03922195969837
N   24   7    -5.12827828560868     1.10587339727385     0.60762064836653
H   25   1    -5.15408816501799    -0.81544705836782     0.54662784797006
H   26   1    -5.69743166898356     1.68113626520945    -1.14337690194197
H   27   1    -6.63528195761783     1.56841410187914     1.73267665553083
N   28   7    -1.71226383393328     0.02257088883181     4.99588785277390
H   29   1    -1.62991523860311     0.86667375415253     6.73575491620870
H   30   1    -0.22416876152653    -1.19157625647512     4.98456461383551
H   31   1    -3.28782110056328    -1.08746368536834     5.11339858210385
N   32   7     2.00548696750367     3.82438993637228     3.04035957482536
H   33   1     2.05186651577887     4.68410571893416     4.77402266739321
H   34   1     2.83712330958063     5.12208376337235     1.87805706574587
H   35   1     3.26582090902109     2.38241174030942     3.19051154350492
N   36   7    -1.41052748417173     4.90769055508820    -1.34790762958202
H   37   1    -1.75003190025884     6.78104976168840    -0.99229329828299
H   38   1    -2.65834387984003     4.49309409198925    -2.75785496783350
H   39   1     0.32278033988471     4.89894112313146    -2.18344058692784
N   40   7    -3.37919124841212     5.33499353664873     3.94750181393545
H   41   1    -2.26357064378777     6.83195331430581     4.45515784003860
H   42   1    -4.15358022727151     4.76963661305810     5.62761006813313
H   43   1    -4.86681766873998     6.18449345978121     3.04686590187224
[GTO]
1 0
 s    6 1.00
          51528.086349  0.0017695545768669
          7737.2103487   0.013556436258096
           1760.374847   0.067162645785071
          496.87706544    0.23295905918518
          161.46520598    0.47040576982722
          55.466352268    0.35733072606876
 s    3 1.00
          107.54732999   -0.10605255446629
          12.408671897    0.62543981484169
          5.0423628826    0.44878820793655
 s    3 1.00
          8.5461640165   -0.21819012081133
          1.3900441221    0.70422525667731
         0.56066602876    0.42488555412558
 s    1 1.00
        0.071483705972                   1
 s    1 1.00
        0.028250687604                   1
 p    5 1.00
          640.48536096  0.0093555063746755
          150.69711194   0.068993338492216
          47.503755296     0.2634118959318
          16.934120165    0.51034501651775
           6.240968059    0.33195512953954
 p    3 1.00
          3.0885463206    0.32917682676976
          1.1791047769    0.55491385190365
         0.43369774432    0.23818412855984
 p    1 1.00
              0.120675                   1
 d    4 1.00
          27.559479426   0.036950140313562
          7.4687020327    0.18821519783039
          2.4345903574    0.44641244239929
         0.78244754808     0.5681617303244
 d    1 1.00
         0.21995774311                   1
 f    1 1.00
                 1.147                   1

2 0
 s    6 1.00
          51528.086349  0.0017695545768669
          7737.2103487   0.013556436258096
           1760.374847   0.067162645785071
          496.87706544    0.23295905918518
          161.46520598    0.47040576982722
          55.466352268    0.35733072606876
 s    3 1.00
          107.54732999   -0.10605255446629
          12.408671897    0.62543981484169
          5.0423628826    0.44878820793655
 s    3 1.00
          8.5461640165   -0.21819012081133
          1.3900441221    0.70422525667731
         0.56066602876    0.42488555412558
 s    1 1.00
        0.071483705972                   1
 s    1 1.00
        0.028250687604                   1
 p    5 1.00
          640.48536096  0.0093555063746755
          150.69711194   0.068993338492216
          47.503755296     0.2634118959318
          16.934120165    0.51034501651775
           6.240968059    0.33195512953954
 p    3 1.00
          3.0885463206    0.32917682676976
          1.1791047769    0.55491385190365
         0.43369774432    0.23818412855984
 p    1 1.00
              0.120675                   1
 d    4 1.00
          27.559479426   0.036950140313562
          7.4687020327    0.18821519783039
          2.4345903574    0.44641244239929
         0.78244754808     0.5681617303244
 d    1 1.00
         0.21995774311                   1
 f    1 1.00
                 1.147                   1

3 0
 s    5 1.00
          2266.1767785  -0.0053893503921743
          340.87010191   -0.04023472138896
          77.363135167   -0.18008184205526
           21.47964494   -0.46828857657651
          6.6589433124   -0.44692617160187
 s    1 1.00
         0.80975975668                   1
 s    1 1.00
         0.25530772234                   1
 p    3 1.00
          17.721504317   0.062630248763161
           3.863550544    0.33331138482352
          1.0480920883    0.74148638308122
 p    1 1.00
         0.27641544411                   1
 d    1 1.00
                   1.2                   1

4 0
 s    5 1.00
          1712.8415853  -0.0054477995804909
          257.64812677  -0.040627174632423
          58.458245853   -0.18111962250584
          16.198367905   -0.46843975563173
          5.0052600809   -0.44616846289231
 s    1 1.00
         0.58731856571                   1
 s    1 1.00
         0.18764592253                   1
 p    3 1.00
          13.571470233  -0.058848116969522
          2.9257372874   -0.32024624762471
         0.79927750754   -0.75328226520436
 p    1 1.00
         0.21954348034                   1
 d    1 1.00
                     1                   1

5 0
 s    3 1.00
             13.010701   0.033485484812989
             1.9622572    0.23472187088125
            0.44453796    0.81377028525955
 s    1 1.00
            0.12194962                   1
 p    1 1.00
                   0.8                   1

6 0
 s    3 1.00
             13.010701   0.033485484812989
             1.9622572    0.23472187088125
            0.44453796    0.81377028525955
 s    1 1.00
            0.12194962                   1
 p    1 1.00
                   0.8                   1

7 0
 s    3 1.00
             13.010701   0.033485484812989
             1.9622572    0.23472187088125
            0.44453796    0.81377028525955
 s    1 1.00
            0.12194962                   1
 p    1 1.00
                   0.8                   1

8 0
 s    5 1.00
          1712.8415853  -0.0054477995804909
          257.64812677  -0.040627174632423
          58.458245853   -0.18111962250584
          16.198367905   -0.46843975563173
          5.0052600809   -0.44616846289231
 s    1 1.00
         0.58731856571                   1
 s    1 1.00
         0.18764592253                   1
 p    3 1.00
          13.571470233  -0.058848116969522
          2.9257372874   -0.32024624762471
         0.79927750754   -0.75328226520436
 p    1 1.00
         0.21954348034                   1
 d    1 1.00
                     1                   1

9 0
 s    3 1.00
             13.010701   0.033485484812989
             1.9622572    0.23472187088125
            0.44453796    0.81377028525955
 s    1 1.00
            0.12194962                   1
 p    1 1.00
                   0.8                   1

10 0
 s    3 1.00
             13.010701   0.033485484812989
             1.9622572    0.23472187088125
            0.44453796    0.81377028525955
 s    1 1.00
            0.12194962                   1
 p    1 1.00
                   0.8                   1

11 0
 s    3 1.00
             13.010701   0.033485484812989
             1.9622572    0.23472187088125
            0.44453796    0.81377028525955
 s    1 1.00
            0.12194962                   1
 p    1 1.00
                   0.8                   1

12 0
 s    5 1.00
          1712.8415853  -0.0054477995804909
          257.64812677  -0.040627174632423
          58.458245853   -0.18111962250584
          16.198367905   -0.46843975563173
          5.0052600809   -0.44616846289231
 s    1 1.00
         0.58731856571                   1
 s    1 1.00
         0.18764592253                   1
 p    3 1.00
          13.571470233  -0.058848116969522
          2.9257372874   -0.32024624762471
         0.79927750754   -0.75328226520436
 p    1 1.00
         0.21954348034                   1
 d    1 1.00
                     1                   1

13 0
 s    3 1.00
             13.010701   0.033485484812989
             1.9622572    0.23472187088125
            0.44453796    0.81377028525955
 s    1 1.00
            0.12194962                   1
 p    1 1.00
                   0.8                   1

14 0
 s    3 1.00
             13.010701   0.033485484812989
             1.9622572    0.23472187088125
            0.44453796    0.81377028525955
 s    1 1.00
            0.12194962                   1
 p    1 1.00
                   0.8                   1

15 0
 s    3 1.00
             13.010701   0.033485484812989
             1.9622572    0.23472187088125
            0.44453796    0.81377028525955
 s    1 1.00
            0.12194962                   1
 p    1 1.00
                   0.8                   1

16 0
 s    5 1.00
          1712.8415853  -0.0054477995804909
          257.64812677  -0.040627174632423
          58.458245853   -0.18111962250584
          16.198367905   -0.46843975563173
          5.0052600809   -0.44616846289231
 s    1 1.00
         0.58731856571                   1
 s    1 1.00
         0.18764592253                   1
 p    3 1.00
          13.571470233  -0.058848116969522
          2.9257372874   -0.32024624762471
         0.79927750754   -0.75328226520436
 p    1 1.00
         0.21954348034                   1
 d    1 1.00
                     1                   1

17 0
 s    3 1.00
             13.010701   0.033485484812989
             1.9622572    0.23472187088125
            0.44453796    0.81377028525955
 s    1 1.00
            0.12194962                   1
 p    1 1.00
                   0.8                   1

18 0
 s    3 1.00
             13.010701   0.033485484812989
             1.9622572    0.23472187088125
            0.44453796    0.81377028525955
 s    1 1.00
            0.12194962                   1
 p    1 1.00
                   0.8                   1

19 0
 s    3 1.00
             13.010701   0.033485484812989
             1.9622572    0.23472187088125
            0.44453796    0.81377028525955
 s    1 1.00
            0.12194962                   1
 p    1 1.00
                   0.8                   1

20 0
 s    5 1.00
          1712.8415853  -0.0054477995804909
          257.64812677  -0.040627174632423
          58.458245853   -0.18111962250584
          16.198367905   -0.46843975563173
          5.0052600809   -0.44616846289231
 s    1 1.00
         0.58731856571                   1
 s    1 1.00
         0.18764592253                   1
 p    3 1.00
          13.571470233  -0.058848116969522
          2.9257372874   -0.32024624762471
         0.79927750754   -0.75328226520436
 p    1 1.00
         0.21954348034                   1
 d    1 1.00
                     1                   1

21 0
 s    3 1.00
             13.010701   0.033485484812989
             1.9622572    0.23472187088125
            0.44453796    0.81377028525955
 s    1 1.00
            0.12194962                   1
 p    1 1.00
                   0.8                   1

22 0
 s    3 1.00
             13.010701   0.033485484812989
             1.9622572    0.23472187088125
            0.44453796    0.81377028525955
 s    1 1.00
            0.12194962                   1
 p    1 1.00
                   0.8                   1

23 0
 s    3 1.00
             13.010701   0.033485484812989
             1.9622572    0.23472187088125
            0.44453796    0.81377028525955
 s    1 1.00
            0.12194962                   1
 p    1 1.00
                   0.8                   1

24 0
 s    5 1.00
          1712.8415853  -0.0054477995804909
          257.64812677  -0.040627174632423
          58.458245853   -0.18111962250584
          16.198367905   -0.46843975563173
          5.0052600809   -0.44616846289231
 s    1 1.00
         0.58731856571                   1
 s    1 1.00
         0.18764592253                   1
 p    3 1.00
          13.571470233  -0.058848116969522
          2.9257372874   -0.32024624762471
         0.79927750754   -0.75328226520436
 p    1 1.00
         0.21954348034                   1
 d    1 1.00
                     1                   1

25 0
 s    3 1.00
             13.010701   0.033485484812989
             1.9622572    0.23472187088125
            0.44453796    0.81377028525955
 s    1 1.00
            0.12194962                   1
 p    1 1.00
                   0.8                   1

26 0
 s    3 1.00
             13.010701   0.033485484812989
             1.9622572    0.23472187088125
            0.44453796    0.81377028525955
 s    1 1.00
            0.12194962                   1
 p    1 1.00
                   0.8                   1

27 0
 s    3 1.00
             13.010701   0.033485484812989
             1.9622572    0.23472187088125
            0.44453796    0.81377028525955
 s    1 1.00
            0.12194962                   1
 p    1 1.00
                   0.8                   1

28 0
 s    5 1.00
          1712.8415853  -0.0054477995804909
          257.64812677  -0.040627174632423
          58.458245853   -0.18111962250584
          16.198367905   -0.46843975563173
          5.0052600809   -0.44616846289231
 s    1 1.00
         0.58731856571                   1
 s    1 1.00
         0.18764592253                   1
 p    3 1.00
          13.571470233  -0.058848116969522
          2.9257372874   -0.32024624762471
         0.79927750754   -0.75328226520436
 p    1 1.00
         0.21954348034                   1
 d    1 1.00
                     1                   1

29 0
 s    3 1.00
             13.010701   0.033485484812989
             1.9622572    0.23472187088125
            0.44453796    0.81377028525955
 s    1 1.00
            0.12194962                   1
 p    1 1.00
                   0.8                   1

30 0
 s    3 1.00
             13.010701   0.033485484812989
             1.9622572    0.23472187088125
            0.44453796    0.81377028525955
 s    1 1.00
            0.12194962                   1
 p    1 1.00
                   0.8                   1

31 0
 s    3 1.00
             13.010701   0.033485484812989
             1.9622572    0.23472187088125
            0.44453796    0.81377028525955
 s    1 1.00
            0.12194962                   1
 p    1 1.00
                   0.8                   1

32 0
 s    5 1.00
          1712.8415853  -0.0054477995804909
          257.64812677  -0.040627174632423
          58.458245853   -0.18111962250584
          16.198367905   -0.46843975563173
          5.0052600809   -0.44616846289231
 s    1 1.00
         0.58731856571                   1
 s    1 1.00
         0.18764592253                   1
 p    3 1.00
          13.571470233  -0.058848116969522
          2.9257372874   -0.32024624762471
         0.79927750754   -0.75328226520436
 p    1 1.00
         0.21954348034                   1
 d    1 1.00
                     1                   1

33 0
 s    3 1.00
             13.010701   0.033485484812989
             1.9622572    0.23472187088125
            0.44453796    0.81377028525955
 s    1 1.00
            0.12194962                   1
 p    1 1.00
                   0.8                   1

34 0
 s    3 1.00
             13.010701   0.033485484812989
             1.9622572    0.23472187088125
            0.44453796    0.81377028525955
 s    1 1.00
            0.12194962                   1
 p    1 1.00
                   0.8                   1

35 0
 s    3 1.00
             13.010701   0.033485484812989
             1.9622572    0.23472187088125
            0.44453796    0.81377028525955
 s    1 1.00
            0.12194962                   1
 p    1 1.00
                   0.8                   1

36 0
 s    5 1.00
          1712.8415853  -0.0054477995804909
          257.64812677  -0.040627174632423
          58.458245853   -0.18111962250584
          16.198367905   -0.46843975563173
          5.0052600809   -0.44616846289231
 s    1 1.00
         0.58731856571                   1
 s    1 1.00
         0.18764592253                   1
 p    3 1.00
          13.571470233  -0.058848116969522
          2.9257372874   -0.32024624762471
         0.79927750754   -0.75328226520436
 p    1 1.00
         0.21954348034                   1
 d    1 1.00
                     1                   1

37 0
 s    3 1.00
             13.010701   0.033485484812989
             1.9622572    0.23472187088125
            0.44453796    0.81377028525955
 s    1 1.00
            0.12194962                   1
 p    1 1.00
                   0.8                   1

38 0
 s    3 1.00
             13.010701   0.033485484812989
             1.9622572    0.23472187088125
            0.44453796    0.81377028525955
 s    1 1.00
            0.12194962                   1
 p    1 1.00
                   0.8                   1

39 0
 s    3 1.00
             13.010701   0.033485484812989
             1.9622572    0.23472187088125
            0.44453796    0.81377028525955
 s    1 1.00
            0.12194962                   1
 p    1 1.00
                   0.8                   1

40 0
 s    5 1.00
          1712.8415853  -0.0054477995804909
          257.64812677  -0.040627174632423
          58.458245853   -0.18111962250584
          16.198367905   -0.46843975563173
          5.0052600809   -0.44616846289231
 s    1 1.00
         0.58731856571                   1
 s    1 1.00
         0.18764592253                   1
 p    3 1.00
          13.571470233  -0.058848116969522
          2.9257372874   -0.32024624762471
         0.79927750754   -0.75328226520436
 p    1 1.00
         0.21954348034                   1
 d    1 1.00
                     1                   1

41 0
 s    3 1.00
             13.010701   0.033485484812989
             1.9622572    0.23472187088125
            0.44453796    0.81377028525955
 s    1 1.00
            0.12194962                   1
 p    1 1.00
                   0.8                   1

42 0
 s    3 1.00
             13.010701   0.033485484812989
             1.9622572    0.23472187088125
            0.44453796    0.81377028525955
 s    1 1.00
            0.12194962                   1
 p    1 1.00
                   0.8                   1

43 0
 s    3 1.00
             13.010701   0.033485484812989
             1.9622572    0.23472187088125
            0.44453796    0.81377028525955
 s    1 1.00
            0.12194962                   1
 p    1 1.00
                   0.8                   1

[5d]
[7f]
[9g]

[MO]
 Sym= A
 Ene=               0
 Spin= Alpha
 Occup=    1.00000
   1    -3.7396938848342e-06
   2      7.1025497526e-06
   3    -6.6807559027781e-05
   4    -0.00028281254497845
   5    0.0016442671026962
   6    0.0047833378055348
   7    0.0043939693290097
   8    -0.0018378983904161
   9     -0.01681371891762
  10    -0.015450412944706
  11    0.0064641683617919
  12     0.060251191013592
  13     0.055519736584243
  14    -0.023209204201693
  15    -0.023915936609092
  16     0.047788364865119
  17     0.014386647080773
  18     -0.07553364579671
  19     0.020336825829516
  20    -0.014787199725168
  21     0.029221887609733
  22    0.0089653680669197
  23    -0.045733277336994
  24     0.012429474462283
  25    -0.00026436689276287
  26    0.0016700094247192
  27    -0.0015162797614774
  28    -0.0043202091769183
  29    0.0019816097121704
  30    0.0012079767284589
  31    -0.004450977501903
  32    3.1984302943186e-06
  33    -5.4066911567458e-06
  34    6.0146228580276e-05
  35    -3.6946061691873e-05
  36    -0.00082353936994307
  37    0.0047823969002843
  38    0.0043960191927683
  39    -0.0018368510831523
  40    -0.016814720106686
  41    -0.015458578839381
  42    0.0064504651663026
  43     0.060344599646793
  44     0.055652404857368
  45    -0.022836027524314
  46     0.024063001643581
  47    -0.047862328100763
  48    -0.014268790177307
  49      0.07549978995682
  50    -0.020189638778627
  51     0.014746166267466
  52    -0.029143239767578
  53    -0.0090273943511496
  54     0.045727377026363
  55    -0.012700685515877
  56    -0.00026685768978223
  57    0.0016694636273236
  58    -0.0015225851343176
  59    -0.0043192170536828
  60    0.0019824301008664
  61    0.0012094149252302
  62    -0.0044488555713544
  63    8.0503305498637e-06
  64    9.3140062932798e-06
  65    7.3069365343999e-05
  66      0.39987678395541
  67      0.36695827597068
  68     -0.15409221255111
  69      0.34411366882918
  70       0.3160934827578
  71     -0.13266775296901
  72    -1.0215403447253e-05
  73    5.4820642852356e-06
  74    -7.5694078094193e-06
  75    5.5530649827587e-07
  76    -1.9665357804213e-05
  77    -0.0052816798358917
  78    -0.0083962750177044
  79    -0.046328938213757
  80    -0.0092105310183635
  81    0.0043317649823316
  82    -0.0016872573524955
  83      0.01250711077302
  84    -0.004984416184211
  85     0.018094339659429
  86    -0.00010713874606476
  87    -0.00043235608096746
  88    -5.9105653655725e-05
  89    0.0018604100189943
  90    -0.0014411612380247
  91     0.013229389315108
  92    0.0043402514462342
  93    -0.00016752209302859
  94    1.7707134292713e-05
  95    0.00040615880472652
  96    -0.002117680947608
  97    -0.0035122340218593
  98    0.0010691296244408
  99    -0.00077858992251232
 100    0.00035351834498264
 101    -0.0055333657095188
 102     0.027811053349458
 103    -0.0036312997036123
 104    -0.000719534973895
 105    -0.0004649800851036
 106    -0.0041841085191029
 107    -0.0080086768683734
 108    -0.027221066243224
 109    -0.0018240274037555
 110    -2.7797281672393e-05
 111    0.0072168773411458
 112    -0.0024933820895436
 113     0.012904440405752
 114    -0.0084290134012407
 115    0.0015562476348256
 116    -0.00036714382479696
 117    0.00096909436220309
 118    -1.3008561135769e-05
 119    3.3263207223508e-05
 120    -0.006359906033149
 121    0.0039828119740562
 122    -0.00056792620547193
 123    0.0004284011248133
 124    0.0024735093809785
 125     0.010487564167218
 126    0.0099627941176293
 127    0.00083551975994221
 128    -0.00014357818669652
 129    0.0004065140233734
 130    -0.002635269444197
 131    -0.0037335211985857
 132    0.00048474378157735
 133    -0.00021265753619904
 134    -0.00094222572887141
 135     0.004419065683152
 136    0.0067480336754277
 137     0.040683919485153
 138    0.0057482388523643
 139    -0.0063782139011707
 140    0.0029426147978982
 141    -0.015878160828702
 142    0.0021531789762217
 143    -0.014120891709977
 144    0.00065659715323275
 145    -0.0012162820981753
 146    0.00021056747620191
 147      0.00122937814102
 148    0.0009807861437545
 149    -0.010926366566822
 150    -0.0029847887992624
 151    -3.9681144750082e-05
 152    -0.00025991869242457
 153    -0.00024634457961751
 154    0.0042715635822515
 155    -0.027758877666534
 156    -8.3172684030129e-05
 157    -0.0026639719256937
 158    0.0023051377909238
 159    0.0012968307854168
 160    0.0037149004478895
 161    -0.00091600506363048
 162    0.00082557332612554
 163    -0.00044677944756948
 164    0.0050007878859203
 165    0.0094944868228992
 166     0.033278428010754
 167    -0.0038817844960136
 168    -0.005849874584698
 169    -0.0051860864939224
 170     0.018882611104914
 171    -2.6335574468084e-05
 172    0.0006226002332985
 173    -0.00092358053795906
 174    -0.00037858877525459
 175    -0.001738577964044
 176    0.00084811114536164
 177    -0.00046165460059311
 178     0.003904439296596
 179    0.0028393662698043
 180    6.550451116983e-05
 181    0.00094790763265809
 182    0.00033581299014586
 183    -0.013069571128391
 184    -0.011690803252784
 185    -0.00032307680506005
 186    0.00037760636108242
 187    -0.00079473563117207
 188    0.0074989256669914
 189    -0.0046746510399064
 190    -0.00077001964683776
 191    -0.0019028848867613
 192    -0.0013342004454656
 193    2.6299182574982e-06
 194    -1.1487958706184e-05
 195    0.00019985956382868
 196     0.001853303022651
 197    0.0016865647203867
 198    -0.00069400861478018
 199    0.00021826018182434
 200    0.0001056570398592
 201    -0.00014904084787153
 202    0.00014106007689973
 203    -0.00015823143966621
 204    -0.0001176281773062
 205    0.00015767038123967
 206    -0.00011305486452887
 207    -0.0012127164602489
 208    -0.0030637269668174
 209    0.00019570729874496
 210    -0.00040599867681928
 211    -0.00051589318177458
 212    0.0013860307430551
 213    0.0031890595345999
 214    -0.00019907830458579
 215    0.00057268415580652
 216    0.00048673756697473
 217    -0.00020506502981781
 218    -0.00074943180131422
 219    -9.6565721885116e-05
 220    -0.00026952349748545
 221    7.0092825611374e-05
 222     0.005331824739785
 223    0.0082304651057125
 224     0.047974205722096
 225    -0.0093573778089178
 226    0.0046490151582684
 227    -0.0014139288871303
 228     0.013396873547631
 229    -0.0065800755775298
 230     0.016837082501301
 231    0.00010470410896331
 232    0.0004128627295225
 233    0.00018694365904081
 234    -0.0018757553925442
 235    0.0013745622151549
 236    0.0051185012152573
 237    -0.029741528701436
 238    -0.0040078138982957
 239    -0.00071032880121141
 240    -0.00053156206185151
 241    0.0012080426281169
 242    0.0029508971712536
 243    0.0011538061082356
 244    -0.00079681746021881
 245    0.0001945916403754
 246    -0.012763372999183
 247    -0.0035294078634037
 248    -7.7539535985245e-05
 249    -6.847117659173e-05
 250    0.00045971907255415
 251    0.0041532856640858
 252     0.008153711383059
 253     0.026015367390758
 254    -0.0014646841430311
 255    -0.000256119427081
 256    0.0071278245524885
 257    -0.0043069943818751
 258     0.013721396325132
 259    -0.0079068636194452
 260    -0.0015564212541323
 261    0.0004119085342752
 262    -0.0010009073254543
 263    3.4284480118453e-05
 264    7.9718137060086e-05
 265    -0.010780125728612
 266    -0.010551949360943
 267    0.00077785173712742
 268    -7.6413330595102e-05
 269    0.00048011975170945
 270    0.0066362866890176
 271    -0.0016321776351832
 272    -0.00071095816280752
 273    0.00045809224031172
 274    0.0020265437082273
 275     0.003288262856074
 276    0.0029411869510725
 277    0.00049464159747871
 278    -0.00019962774301389
 279    -0.00076876456095762
 280    -0.0050242667128023
 281    -0.0094102600716992
 282     -0.03413020294192
 283    -0.003729745653455
 284    -0.0061490101917155
 285    -0.0051670378368751
 286      0.01837675686381
 287    0.0013694965721549
 288    0.00044127620723153
 289    0.00096444952572824
 290    0.00037733655069541
 291    0.0016751117166304
 292    -0.0008305790307076
 293    0.00052096392456503
 294        0.012853628032
 295     0.011152015953963
 296    -0.00035008351295135
 297    0.00046729579419351
 298    -0.00076752297300069
 299    -0.0034222157112206
 300    -0.003229048706903
 301    0.00011769940458242
 302    0.0010209564034331
 303    0.00047473113044516
 304    -0.0073819486149216
 305    0.0064126687624034
 306    -0.00093213284753385
 307    -0.0020071607513825
 308    -0.0016343775064852
 309    -0.004370568967457
 310    -0.0069239050794866
 311    -0.038800178951815
 312    0.0055824586593489
 313    -0.006126597551841
 314     0.003197122330312
 315     -0.01493705121302
 316    0.00085741049216309
 317    -0.015454556638955
 318    -0.0006186172847198
 319    0.0011696489016714
 320    -0.00013522711176564
 321    -0.0012593321092059
 322    -0.0010654098326279
 323     0.011260356935358
 324    0.0038061587839636
 325    4.9918695436635e-05
 326    -0.00030158855806983
 327    -0.00019050658516032
 328    -0.0020233874391295
 329    -0.0047670212690188
 330    -0.00096579136093903
 331    0.00069989621621917
 332    -0.00055247352778992
 333    -0.0046678502230004
 334     0.025735951695302
 335    -0.00014062596095916
 336    -0.0024102844160675
 337    0.0021092775620929
 338    7.0707821714432e-06
 339    4.7873336516275e-05
 340    -0.00018283514628483
 341    0.0018247453622074
 342    0.0017039940220774