[Molden Format]
made by pyscf v[2.1.1]
[Atoms] (AU)
Cr   1   24     1.56143912275337    -2.46507591990239    -1.82404491365355
Cr   2   24    -1.56139565905251     2.46513072196000     1.82399011159594
O   3   8     0.00002078698737     0.00002834589187    -0.00002645616574
N   4   7     5.12832174930954    -1.10581670549011    -0.60767356069801
H   5   1     6.65216855026694    -1.66292686427314    -1.66487895135981
H   6   1     5.63710405218294    -1.59213394419468     1.18765885421890
H   7   1     5.20084187906585     0.81566059741989    -0.65509245834172
N   8   7     1.71230729763415    -0.02251608677419    -4.99594076510539
H   9   1     0.29795878723855     1.27247165241550    -4.90823668593820
H   10   1     1.50271021425414    -0.85583806455427    -6.73026148236459
H   11   1     3.34039895052705     0.99863710888315    -5.18656310846864
N   12   7     1.41057094787259    -4.90763575303059     1.34785282752440
H   13   1     1.64193389675534    -6.79355407945465     0.97314659318890
H   14   1    -0.29048681014202    -4.81040367474334     2.24006056107205
H   15   1     2.72468082571676    -4.56691435331926     2.71738081369757
N   16   7    -2.00544350380280    -3.82433513431467    -3.04041437688297
H   17   1    -2.87205678671934    -5.05516478184926    -1.83221042023780
H   18   1    -2.03637832046193    -4.76397121413665    -4.73247136936628
H   19   1    -3.24475802163669    -2.37551046050250    -3.28123540501917
N   20   7     3.37923471211299    -5.33493873459111    -3.94755661599306
H   21   1     4.17102617885350    -4.76109883042731    -5.61685374703210
H   22   1     2.26176595533881    -6.82326057413281    -4.47610923358166
H   23   1     4.85383336053810    -6.19899521806112    -3.03922195969837
N   24   7    -5.12827828560868     1.10587339727385     0.60762064836653
H   25   1    -5.15408816501799    -0.81544705836782     0.54662784797006
H   26   1    -5.69743166898356     1.68113626520945    -1.14337690194197
H   27   1    -6.63528195761783     1.56841410187914     1.73267665553083
N   28   7    -1.71226383393328     0.02257088883181     4.99588785277390
H   29   1    -1.62991523860311     0.86667375415253     6.73575491620870
H   30   1    -0.22416876152653    -1.19157625647512     4.98456461383551
H   31   1    -3.28782110056328    -1.08746368536834     5.11339858210385
N   32   7     2.00548696750367     3.82438993637228     3.04035957482536
H   33   1     2.05186651577887     4.68410571893416     4.77402266739321
H   34   1     2.83712330958063     5.12208376337235     1.87805706574587
H   35   1     3.26582090902109     2.38241174030942     3.19051154350492
N   36   7    -1.41052748417173     4.90769055508820    -1.34790762958202
H   37   1    -1.75003190025884     6.78104976168840    -0.99229329828299
H   38   1    -2.65834387984003     4.49309409198925    -2.75785496783350
H   39   1     0.32278033988471     4.89894112313146    -2.18344058692784
N   40   7    -3.37919124841212     5.33499353664873     3.94750181393545
H   41   1    -2.26357064378777     6.83195331430581     4.45515784003860
H   42   1    -4.15358022727151     4.76963661305810     5.62761006813313
H   43   1    -4.86681766873998     6.18449345978121     3.04686590187224
[GTO]
1 0
 s    6 1.00
          51528.086349  0.0017695545768669
          7737.2103487   0.013556436258096
           1760.374847   0.067162645785071
          496.87706544    0.23295905918518
          161.46520598    0.47040576982722
          55.466352268    0.35733072606876
 s    3 1.00
          107.54732999   -0.10605255446629
          12.408671897    0.62543981484169
          5.0423628826    0.44878820793655
 s    3 1.00
          8.5461640165   -0.21819012081133
          1.3900441221    0.70422525667731
         0.56066602876    0.42488555412558
 s    1 1.00
        0.071483705972                   1
 s    1 1.00
        0.028250687604                   1
 p    5 1.00
          640.48536096  0.0093555063746755
          150.69711194   0.068993338492216
          47.503755296     0.2634118959318
          16.934120165    0.51034501651775
           6.240968059    0.33195512953954
 p    3 1.00
          3.0885463206    0.32917682676976
          1.1791047769    0.55491385190365
         0.43369774432    0.23818412855984
 p    1 1.00
              0.120675                   1
 d    4 1.00
          27.559479426   0.036950140313562
          7.4687020327    0.18821519783039
          2.4345903574    0.44641244239929
         0.78244754808     0.5681617303244
 d    1 1.00
         0.21995774311                   1
 f    1 1.00
                 1.147                   1

2 0
 s    6 1.00
          51528.086349  0.0017695545768669
          7737.2103487   0.013556436258096
           1760.374847   0.067162645785071
          496.87706544    0.23295905918518
          161.46520598    0.47040576982722
          55.466352268    0.35733072606876
 s    3 1.00
          107.54732999   -0.10605255446629
          12.408671897    0.62543981484169
          5.0423628826    0.44878820793655
 s    3 1.00
          8.5461640165   -0.21819012081133
          1.3900441221    0.70422525667731
         0.56066602876    0.42488555412558
 s    1 1.00
        0.071483705972                   1
 s    1 1.00
        0.028250687604                   1
 p    5 1.00
          640.48536096  0.0093555063746755
          150.69711194   0.068993338492216
          47.503755296     0.2634118959318
          16.934120165    0.51034501651775
           6.240968059    0.33195512953954
 p    3 1.00
          3.0885463206    0.32917682676976
          1.1791047769    0.55491385190365
         0.43369774432    0.23818412855984
 p    1 1.00
              0.120675                   1
 d    4 1.00
          27.559479426   0.036950140313562
          7.4687020327    0.18821519783039
          2.4345903574    0.44641244239929
         0.78244754808     0.5681617303244
 d    1 1.00
         0.21995774311                   1
 f    1 1.00
                 1.147                   1

3 0
 s    5 1.00
          2266.1767785  -0.0053893503921743
          340.87010191   -0.04023472138896
          77.363135167   -0.18008184205526
           21.47964494   -0.46828857657651
          6.6589433124   -0.44692617160187
 s    1 1.00
         0.80975975668                   1
 s    1 1.00
         0.25530772234                   1
 p    3 1.00
          17.721504317   0.062630248763161
           3.863550544    0.33331138482352
          1.0480920883    0.74148638308122
 p    1 1.00
         0.27641544411                   1
 d    1 1.00
                   1.2                   1

4 0
 s    5 1.00
          1712.8415853  -0.0054477995804909
          257.64812677  -0.040627174632423
          58.458245853   -0.18111962250584
          16.198367905   -0.46843975563173
          5.0052600809   -0.44616846289231
 s    1 1.00
         0.58731856571                   1
 s    1 1.00
         0.18764592253                   1
 p    3 1.00
          13.571470233  -0.058848116969522
          2.9257372874   -0.32024624762471
         0.79927750754   -0.75328226520436
 p    1 1.00
         0.21954348034                   1
 d    1 1.00
                     1                   1

5 0
 s    3 1.00
             13.010701   0.033485484812989
             1.9622572    0.23472187088125
            0.44453796    0.81377028525955
 s    1 1.00
            0.12194962                   1
 p    1 1.00
                   0.8                   1

6 0
 s    3 1.00
             13.010701   0.033485484812989
             1.9622572    0.23472187088125
            0.44453796    0.81377028525955
 s    1 1.00
            0.12194962                   1
 p    1 1.00
                   0.8                   1

7 0
 s    3 1.00
             13.010701   0.033485484812989
             1.9622572    0.23472187088125
            0.44453796    0.81377028525955
 s    1 1.00
            0.12194962                   1
 p    1 1.00
                   0.8                   1

8 0
 s    5 1.00
          1712.8415853  -0.0054477995804909
          257.64812677  -0.040627174632423
          58.458245853   -0.18111962250584
          16.198367905   -0.46843975563173
          5.0052600809   -0.44616846289231
 s    1 1.00
         0.58731856571                   1
 s    1 1.00
         0.18764592253                   1
 p    3 1.00
          13.571470233  -0.058848116969522
          2.9257372874   -0.32024624762471
         0.79927750754   -0.75328226520436
 p    1 1.00
         0.21954348034                   1
 d    1 1.00
                     1                   1

9 0
 s    3 1.00
             13.010701   0.033485484812989
             1.9622572    0.23472187088125
            0.44453796    0.81377028525955
 s    1 1.00
            0.12194962                   1
 p    1 1.00
                   0.8                   1

10 0
 s    3 1.00
             13.010701   0.033485484812989
             1.9622572    0.23472187088125
            0.44453796    0.81377028525955
 s    1 1.00
            0.12194962                   1
 p    1 1.00
                   0.8                   1

11 0
 s    3 1.00
             13.010701   0.033485484812989
             1.9622572    0.23472187088125
            0.44453796    0.81377028525955
 s    1 1.00
            0.12194962                   1
 p    1 1.00
                   0.8                   1

12 0
 s    5 1.00
          1712.8415853  -0.0054477995804909
          257.64812677  -0.040627174632423
          58.458245853   -0.18111962250584
          16.198367905   -0.46843975563173
          5.0052600809   -0.44616846289231
 s    1 1.00
         0.58731856571                   1
 s    1 1.00
         0.18764592253                   1
 p    3 1.00
          13.571470233  -0.058848116969522
          2.9257372874   -0.32024624762471
         0.79927750754   -0.75328226520436
 p    1 1.00
         0.21954348034                   1
 d    1 1.00
                     1                   1

13 0
 s    3 1.00
             13.010701   0.033485484812989
             1.9622572    0.23472187088125
            0.44453796    0.81377028525955
 s    1 1.00
            0.12194962                   1
 p    1 1.00
                   0.8                   1

14 0
 s    3 1.00
             13.010701   0.033485484812989
             1.9622572    0.23472187088125
            0.44453796    0.81377028525955
 s    1 1.00
            0.12194962                   1
 p    1 1.00
                   0.8                   1

15 0
 s    3 1.00
             13.010701   0.033485484812989
             1.9622572    0.23472187088125
            0.44453796    0.81377028525955
 s    1 1.00
            0.12194962                   1
 p    1 1.00
                   0.8                   1

16 0
 s    5 1.00
          1712.8415853  -0.0054477995804909
          257.64812677  -0.040627174632423
          58.458245853   -0.18111962250584
          16.198367905   -0.46843975563173
          5.0052600809   -0.44616846289231
 s    1 1.00
         0.58731856571                   1
 s    1 1.00
         0.18764592253                   1
 p    3 1.00
          13.571470233  -0.058848116969522
          2.9257372874   -0.32024624762471
         0.79927750754   -0.75328226520436
 p    1 1.00
         0.21954348034                   1
 d    1 1.00
                     1                   1

17 0
 s    3 1.00
             13.010701   0.033485484812989
             1.9622572    0.23472187088125
            0.44453796    0.81377028525955
 s    1 1.00
            0.12194962                   1
 p    1 1.00
                   0.8                   1

18 0
 s    3 1.00
             13.010701   0.033485484812989
             1.9622572    0.23472187088125
            0.44453796    0.81377028525955
 s    1 1.00
            0.12194962                   1
 p    1 1.00
                   0.8                   1

19 0
 s    3 1.00
             13.010701   0.033485484812989
             1.9622572    0.23472187088125
            0.44453796    0.81377028525955
 s    1 1.00
            0.12194962                   1
 p    1 1.00
                   0.8                   1

20 0
 s    5 1.00
          1712.8415853  -0.0054477995804909
          257.64812677  -0.040627174632423
          58.458245853   -0.18111962250584
          16.198367905   -0.46843975563173
          5.0052600809   -0.44616846289231
 s    1 1.00
         0.58731856571                   1
 s    1 1.00
         0.18764592253                   1
 p    3 1.00
          13.571470233  -0.058848116969522
          2.9257372874   -0.32024624762471
         0.79927750754   -0.75328226520436
 p    1 1.00
         0.21954348034                   1
 d    1 1.00
                     1                   1

21 0
 s    3 1.00
             13.010701   0.033485484812989
             1.9622572    0.23472187088125
            0.44453796    0.81377028525955
 s    1 1.00
            0.12194962                   1
 p    1 1.00
                   0.8                   1

22 0
 s    3 1.00
             13.010701   0.033485484812989
             1.9622572    0.23472187088125
            0.44453796    0.81377028525955
 s    1 1.00
            0.12194962                   1
 p    1 1.00
                   0.8                   1

23 0
 s    3 1.00
             13.010701   0.033485484812989
             1.9622572    0.23472187088125
            0.44453796    0.81377028525955
 s    1 1.00
            0.12194962                   1
 p    1 1.00
                   0.8                   1

24 0
 s    5 1.00
          1712.8415853  -0.0054477995804909
          257.64812677  -0.040627174632423
          58.458245853   -0.18111962250584
          16.198367905   -0.46843975563173
          5.0052600809   -0.44616846289231
 s    1 1.00
         0.58731856571                   1
 s    1 1.00
         0.18764592253                   1
 p    3 1.00
          13.571470233  -0.058848116969522
          2.9257372874   -0.32024624762471
         0.79927750754   -0.75328226520436
 p    1 1.00
         0.21954348034                   1
 d    1 1.00
                     1                   1

25 0
 s    3 1.00
             13.010701   0.033485484812989
             1.9622572    0.23472187088125
            0.44453796    0.81377028525955
 s    1 1.00
            0.12194962                   1
 p    1 1.00
                   0.8                   1

26 0
 s    3 1.00
             13.010701   0.033485484812989
             1.9622572    0.23472187088125
            0.44453796    0.81377028525955
 s    1 1.00
            0.12194962                   1
 p    1 1.00
                   0.8                   1

27 0
 s    3 1.00
             13.010701   0.033485484812989
             1.9622572    0.23472187088125
            0.44453796    0.81377028525955
 s    1 1.00
            0.12194962                   1
 p    1 1.00
                   0.8                   1

28 0
 s    5 1.00
          1712.8415853  -0.0054477995804909
          257.64812677  -0.040627174632423
          58.458245853   -0.18111962250584
          16.198367905   -0.46843975563173
          5.0052600809   -0.44616846289231
 s    1 1.00
         0.58731856571                   1
 s    1 1.00
         0.18764592253                   1
 p    3 1.00
          13.571470233  -0.058848116969522
          2.9257372874   -0.32024624762471
         0.79927750754   -0.75328226520436
 p    1 1.00
         0.21954348034                   1
 d    1 1.00
                     1                   1

29 0
 s    3 1.00
             13.010701   0.033485484812989
             1.9622572    0.23472187088125
            0.44453796    0.81377028525955
 s    1 1.00
            0.12194962                   1
 p    1 1.00
                   0.8                   1

30 0
 s    3 1.00
             13.010701   0.033485484812989
             1.9622572    0.23472187088125
            0.44453796    0.81377028525955
 s    1 1.00
            0.12194962                   1
 p    1 1.00
                   0.8                   1

31 0
 s    3 1.00
             13.010701   0.033485484812989
             1.9622572    0.23472187088125
            0.44453796    0.81377028525955
 s    1 1.00
            0.12194962                   1
 p    1 1.00
                   0.8                   1

32 0
 s    5 1.00
          1712.8415853  -0.0054477995804909
          257.64812677  -0.040627174632423
          58.458245853   -0.18111962250584
          16.198367905   -0.46843975563173
          5.0052600809   -0.44616846289231
 s    1 1.00
         0.58731856571                   1
 s    1 1.00
         0.18764592253                   1
 p    3 1.00
          13.571470233  -0.058848116969522
          2.9257372874   -0.32024624762471
         0.79927750754   -0.75328226520436
 p    1 1.00
         0.21954348034                   1
 d    1 1.00
                     1                   1

33 0
 s    3 1.00
             13.010701   0.033485484812989
             1.9622572    0.23472187088125
            0.44453796    0.81377028525955
 s    1 1.00
            0.12194962                   1
 p    1 1.00
                   0.8                   1

34 0
 s    3 1.00
             13.010701   0.033485484812989
             1.9622572    0.23472187088125
            0.44453796    0.81377028525955
 s    1 1.00
            0.12194962                   1
 p    1 1.00
                   0.8                   1

35 0
 s    3 1.00
             13.010701   0.033485484812989
             1.9622572    0.23472187088125
            0.44453796    0.81377028525955
 s    1 1.00
            0.12194962                   1
 p    1 1.00
                   0.8                   1

36 0
 s    5 1.00
          1712.8415853  -0.0054477995804909
          257.64812677  -0.040627174632423
          58.458245853   -0.18111962250584
          16.198367905   -0.46843975563173
          5.0052600809   -0.44616846289231
 s    1 1.00
         0.58731856571                   1
 s    1 1.00
         0.18764592253                   1
 p    3 1.00
          13.571470233  -0.058848116969522
          2.9257372874   -0.32024624762471
         0.79927750754   -0.75328226520436
 p    1 1.00
         0.21954348034                   1
 d    1 1.00
                     1                   1

37 0
 s    3 1.00
             13.010701   0.033485484812989
             1.9622572    0.23472187088125
            0.44453796    0.81377028525955
 s    1 1.00
            0.12194962                   1
 p    1 1.00
                   0.8                   1

38 0
 s    3 1.00
             13.010701   0.033485484812989
             1.9622572    0.23472187088125
            0.44453796    0.81377028525955
 s    1 1.00
            0.12194962                   1
 p    1 1.00
                   0.8                   1

39 0
 s    3 1.00
             13.010701   0.033485484812989
             1.9622572    0.23472187088125
            0.44453796    0.81377028525955
 s    1 1.00
            0.12194962                   1
 p    1 1.00
                   0.8                   1

40 0
 s    5 1.00
          1712.8415853  -0.0054477995804909
          257.64812677  -0.040627174632423
          58.458245853   -0.18111962250584
          16.198367905   -0.46843975563173
          5.0052600809   -0.44616846289231
 s    1 1.00
         0.58731856571                   1
 s    1 1.00
         0.18764592253                   1
 p    3 1.00
          13.571470233  -0.058848116969522
          2.9257372874   -0.32024624762471
         0.79927750754   -0.75328226520436
 p    1 1.00
         0.21954348034                   1
 d    1 1.00
                     1                   1

41 0
 s    3 1.00
             13.010701   0.033485484812989
             1.9622572    0.23472187088125
            0.44453796    0.81377028525955
 s    1 1.00
            0.12194962                   1
 p    1 1.00
                   0.8                   1

42 0
 s    3 1.00
             13.010701   0.033485484812989
             1.9622572    0.23472187088125
            0.44453796    0.81377028525955
 s    1 1.00
            0.12194962                   1
 p    1 1.00
                   0.8                   1

43 0
 s    3 1.00
             13.010701   0.033485484812989
             1.9622572    0.23472187088125
            0.44453796    0.81377028525955
 s    1 1.00
            0.12194962                   1
 p    1 1.00
                   0.8                   1

[5d]
[7f]
[9g]

[MO]
 Sym= A
 Ene=               0
 Spin= Alpha
 Occup=    1.00000
   1    0.0021127351461428
   2    -0.0061165697021801
   3     0.030098659076778
   4    -0.047675711043875
   5    0.0049639645288577
   6    0.0041043158038422
   7    -0.0064109237364166
   8    -0.0046656231719607
   9    -0.013988700406858
  10      0.02185197779555
  11     0.015907746882497
  12    0.0077662885404321
  13    -0.011098459504929
  14    -0.0069713228280485
  15     0.017823345493124
  16     0.092588939866443
  17     -0.14715963885643
  18     0.058882395946545
  19      0.12507180190644
  20     0.010528068683586
  21      0.05324424210387
  22     -0.08499073457197
  23     0.033858967037719
  24     0.072315259163953
  25    0.0027786311260666
  26    0.00075407577515304
  27    -0.0011641962445299
  28    0.0020764548113096
  29    0.0043847811327487
  30    -0.0031498155110557
  31    -0.00039388051018889
  32    -0.0040656111062256
  33    0.0088227025668187
  34    -0.066911876001778
  35     0.045804844378606
  36    -0.00045903277903546
  37    0.0043868407102512
  38    -0.0069547713007462
  39    -0.0051931993960244
  40    -0.015203468583771
  41     0.024087520350668
  42     0.017961960595583
  43     0.012976694957594
  44    -0.020411464006975
  45    -0.015101301870621
  46    -0.0061178999768182
  47    -0.032919679163074
  48     0.052115538230494
  49    -0.021005341640065
  50     -0.04454676581271
  51    0.00016387146841629
  52    5.3741819297991e-05
  53    7.8691457605622e-05
  54    4.363524352007e-05
  55    -2.1028565873681e-05
  56    0.0028289740818995
  57    0.00073968997881566
  58    -0.0011927505747107
  59    0.0021024052168132
  60    0.0044807001310276
  61    -0.0032055870947317
  62    -0.00038561910743121
  63    -0.073990328171854
  64     -0.19164993215491
  65     -0.11735599227636
  66     -0.15973094867584
  67      0.25230348131775
  68      0.18659434300734
  69     -0.13981457273495
  70      0.22067980863642
  71      0.16304485185874
  72    0.00038574781647975
  73    0.0020238844737617
  74    -0.0032023771573665
  75    0.0012936419865308
  76     0.002746613077749
  77     0.014131264662847
  78     0.096654233930833
  79     0.055813726991586
  80     0.058422359381258
  81     0.023054033246006
  82     0.017731366637056
  83    -0.043487532693835
  84    -0.019892312810741
  85     -0.01623727357403
  86    0.00046122945491497
  87    0.00071471671258627
  88    -0.00033772719681104
  89    -0.00070850671704528
  90    0.00067505455869013
  91    0.0057545058652333
  92    -0.0054376176097471
  93    -0.003247536081325
  94    0.00017137460857221
  95    0.00030547694865667
  96     0.013867969992243
  97    -0.001729381540325
  98    -0.0029024044537454
  99    -0.00050424903396006
 100    -0.0023396287255487
 101     0.013403765008132
 102    -0.00061706729242611
 103    -0.001446517822872
 104    -0.0029455585288742
 105    -0.00078083686867097
 106     0.014351483358093
 107      0.09896459058624
 108     0.057404279588294
 109    -0.00065860570890853
 110     0.040702109759336
 111    -0.053304597581321
 112    0.00057107423901876
 113    -0.034438698903609
 114     0.040089919496339
 115    -0.00083660604974924
 116    0.00048605842266143
 117    -0.00058825467790253
 118    1.4011292968015e-05
 119    0.00024153910958976
 120     0.012818745505421
 121    -0.00046545508105743
 122    0.0018035058403349
 123    -0.0027443987912541
 124    0.00077438749800645
 125     0.007091915475272
 126    -0.0047168263980056
 127    -0.00036493294694103
 128    -0.00038226027928993
 129    0.0034305479164345
 130     0.014187073778658
 131    -0.0021793332237303
 132    -0.0017333318394798
 133    -0.0024368011644884
 134    0.0025841451979935
 135     0.014513410802364
 136      0.09944878570543
 137     0.057464309478084
 138    -0.0041197014050054
 139     -0.04206502723077
 140      0.05191805970991
 141      0.00401152183935
 142     0.029600896925389
 143    -0.042324953616179
 144    0.00064777067888631
 145    8.9538679706745e-05
 146    -7.4391424354952e-05
 147    0.0010012259943235
 148    0.00061991402640111
 149    0.0060351666686577
 150    -0.0055494561222995
 151    -0.00046725227459467
 152     0.003101268392543
 153    -0.0011836516233825
 154     0.013752509912538
 155    -0.00084191784170533
 156    0.0020739387655634
 157    0.00068323871540459
 158    -0.0026929957506301
 159     0.014382973022509
 160    -0.0017741807307774
 161    -0.0010828836606826
 162    0.0014369512431265
 163    -0.0034238183419253
 164     0.014060994660665
 165     0.096340661101572
 166     0.056261326282159
 167    -0.057972858742466
 168    -0.020575804152055
 169    -0.022317923540057
 170     0.047117333509563
 171     0.014648255773674
 172     0.014741741999914
 173    -0.00029543311439431
 174    -0.00016934670956934
 175    -0.0011235531528633
 176    0.00051523380332473
 177    -9.3853864581211e-05
 178     0.014395757354317
 179    -0.0017537939870163
 180    0.0031411831604803
 181    0.0021809707022856
 182    -0.00018629232839288
 183    0.0055200694096026
 184    -0.0050247272888104
 185    0.0016564387556842
 186    0.0019278532154527
 187    0.0020505171886824
 188     0.013032236626148
 189    -0.00049760808336445
 190    0.0029588276255737
 191    -0.001401214647912
 192    0.00047093927768176
 193    -0.029105056225723
 194     -0.20636198643184
 195     -0.10662693936876
 196    -0.057935014832581
 197     0.090767110339555
 198     0.066593846420458
 199     0.041895884503595
 200    -0.065567749434781
 201    -0.048212164372129
 202    8.2490812234362e-05
 203    0.00056283266589789
 204    -0.00093629430802662
 205    0.00037165265622242
 206    0.00078442526096285
 207    -0.025955362685277
 208    0.0073386086294079
 209    0.0035442802349614
 210    -0.0012012594524041
 211    -0.0058289963317577
 212    -0.025761632973153
 213    0.0073324764320082
 214    -0.00097141079016024
 215    -0.0061050513755291
 216    -0.0031000036486722
 217    -0.026285455820893
 218    0.0078322709735418
 219     0.005133403776606
 220    -0.0046049041619407
 221    0.00031912047758477
 222    0.00014532416335616
 223     0.035596102798191
 224     0.018719216084363
 225     -0.01575222478492
 226    -0.0091125576763096
 227    -0.0039962917920169
 228     0.011716833651256
 229    0.0061541483963186
 230    0.0032652876634232
 231    -0.00016451825508899
 232    -0.00055060694826538
 233    -0.00032499214663823
 234    0.0010437781016556
 235    -0.00069502178834354
 236    0.0024046038959424
 237    -0.0053540376588571
 238    0.0012548870878077
 239    0.0012083756308523
 240    0.00046277230493569
 241     0.007176633107747
 242    -0.0023071751390984
 243    0.00096186973874439
 244    0.00017281984819788
 245    0.0011985601914013
 246    0.0079970407787382
 247    -0.0011027442334879
 248     0.000656794021034
 249    -5.8717279932601e-05
 250    -0.00049978681592778
 251    0.00013167009395565
 252     0.035528077692665
 253     0.018598324523109
 254    0.00079681930335783
 255    -0.011931774601179
 256     0.014012939905164
 257    -0.00028855914232472
 258    0.0085420214233732
 259    -0.010594115482704
 260    0.0010716408394644
 261    -0.00047322812994158
 262    0.00047402127566664
 263    0.00038973644508593
 264    0.00042801305214839
 265    0.0081214916391704
 266    -0.00087918245610722
 267    -0.0001107766436961
 268    -0.00028721106529957
 269    -0.00084251146173581
 270    0.0032915247377599
 271    -0.0055695554907551
 272    -0.00055704831463958
 273    0.0014572461515583
 274    -0.0011241962689206
 275    0.0061034302027061
 276    -0.0023639350155063
 277    0.00065656170991113
 278    0.0010610194638045
 279    -0.0004744761535213
 280    0.00014179967009366
 281     0.035611795372028
 282     0.018666087709666
 283     0.016965119824225
 284    0.0047071403299766
 285    0.0055849192812487
 286    -0.012371775738359
 287    -0.0038211581860718
 288    -0.0042355315840124
 289    0.00054960383108588
 290    0.00031227877635866
 291    0.00070363954368555
 292    -0.00075181330590578
 293    0.00069210536203336
 294    0.0081170183541468
 295    -0.00091201250116108
 296    -0.00013197266533813
 297    -0.00033807561647706
 298    -0.00080383354574169
 299    0.0060377697762509
 300    -0.002480280436039
 301    -0.0010835156622376
 302    -0.00069006514229912
 303    0.00041646392497874
 304    0.0033862131977779
 305    -0.0054828764329081
 306    -0.0018622847201689
 307    0.00012709127281807
 308    -0.00045471217315039
 309    0.00018112934760529
 310     0.035642931786833
 311     0.018657849029476
 312    0.0032938863101938
 313     0.011438987220554
 314    -0.014162728403919
 315    -0.0020036477143072
 316    -0.0082471915610895
 317     0.010495343884857
 318    -0.00085451707918053
 319    0.00052064821422979
 320    -0.00014236245813256
 321    -0.00089483911439399
 322    -0.00042892904664571
 323    0.0079828757994378
 324    -0.001045603909651
 325    4.4005717740093e-05
 326    -0.00078545753342821
 327    -0.00012367286431325
 328    0.0067390890885462
 329    -0.002913456325706
 330    0.00045573066229461
 331    -0.00030224028412755
 332    0.0015130675514941
 333    0.0029571834470815
 334    -0.0048390267517937
 335    -0.00072683373697487
 336    -0.00079180124202007
 337    0.0013932869860935
 338    -0.017985531679762
 339     -0.13213064609068
 340    -0.093189408928376
 341      0.03302869632104
 342    -0.051590197585179
 343    -0.037524834206324