[Molden Format]
made by pyscf v[2.1.1]
[Atoms] (AU)
Cr   1   24     1.56143912275337    -2.46507591990239    -1.82404491365355
Cr   2   24    -1.56139565905251     2.46513072196000     1.82399011159594
O   3   8     0.00002078698737     0.00002834589187    -0.00002645616574
N   4   7     5.12832174930954    -1.10581670549011    -0.60767356069801
H   5   1     6.65216855026694    -1.66292686427314    -1.66487895135981
H   6   1     5.63710405218294    -1.59213394419468     1.18765885421890
H   7   1     5.20084187906585     0.81566059741989    -0.65509245834172
N   8   7     1.71230729763415    -0.02251608677419    -4.99594076510539
H   9   1     0.29795878723855     1.27247165241550    -4.90823668593820
H   10   1     1.50271021425414    -0.85583806455427    -6.73026148236459
H   11   1     3.34039895052705     0.99863710888315    -5.18656310846864
N   12   7     1.41057094787259    -4.90763575303059     1.34785282752440
H   13   1     1.64193389675534    -6.79355407945465     0.97314659318890
H   14   1    -0.29048681014202    -4.81040367474334     2.24006056107205
H   15   1     2.72468082571676    -4.56691435331926     2.71738081369757
N   16   7    -2.00544350380280    -3.82433513431467    -3.04041437688297
H   17   1    -2.87205678671934    -5.05516478184926    -1.83221042023780
H   18   1    -2.03637832046193    -4.76397121413665    -4.73247136936628
H   19   1    -3.24475802163669    -2.37551046050250    -3.28123540501917
N   20   7     3.37923471211299    -5.33493873459111    -3.94755661599306
H   21   1     4.17102617885350    -4.76109883042731    -5.61685374703210
H   22   1     2.26176595533881    -6.82326057413281    -4.47610923358166
H   23   1     4.85383336053810    -6.19899521806112    -3.03922195969837
N   24   7    -5.12827828560868     1.10587339727385     0.60762064836653
H   25   1    -5.15408816501799    -0.81544705836782     0.54662784797006
H   26   1    -5.69743166898356     1.68113626520945    -1.14337690194197
H   27   1    -6.63528195761783     1.56841410187914     1.73267665553083
N   28   7    -1.71226383393328     0.02257088883181     4.99588785277390
H   29   1    -1.62991523860311     0.86667375415253     6.73575491620870
H   30   1    -0.22416876152653    -1.19157625647512     4.98456461383551
H   31   1    -3.28782110056328    -1.08746368536834     5.11339858210385
N   32   7     2.00548696750367     3.82438993637228     3.04035957482536
H   33   1     2.05186651577887     4.68410571893416     4.77402266739321
H   34   1     2.83712330958063     5.12208376337235     1.87805706574587
H   35   1     3.26582090902109     2.38241174030942     3.19051154350492
N   36   7    -1.41052748417173     4.90769055508820    -1.34790762958202
H   37   1    -1.75003190025884     6.78104976168840    -0.99229329828299
H   38   1    -2.65834387984003     4.49309409198925    -2.75785496783350
H   39   1     0.32278033988471     4.89894112313146    -2.18344058692784
N   40   7    -3.37919124841212     5.33499353664873     3.94750181393545
H   41   1    -2.26357064378777     6.83195331430581     4.45515784003860
H   42   1    -4.15358022727151     4.76963661305810     5.62761006813313
H   43   1    -4.86681766873998     6.18449345978121     3.04686590187224
[GTO]
1 0
 s    6 1.00
          51528.086349  0.0017695545768669
          7737.2103487   0.013556436258096
           1760.374847   0.067162645785071
          496.87706544    0.23295905918518
          161.46520598    0.47040576982722
          55.466352268    0.35733072606876
 s    3 1.00
          107.54732999   -0.10605255446629
          12.408671897    0.62543981484169
          5.0423628826    0.44878820793655
 s    3 1.00
          8.5461640165   -0.21819012081133
          1.3900441221    0.70422525667731
         0.56066602876    0.42488555412558
 s    1 1.00
        0.071483705972                   1
 s    1 1.00
        0.028250687604                   1
 p    5 1.00
          640.48536096  0.0093555063746755
          150.69711194   0.068993338492216
          47.503755296     0.2634118959318
          16.934120165    0.51034501651775
           6.240968059    0.33195512953954
 p    3 1.00
          3.0885463206    0.32917682676976
          1.1791047769    0.55491385190365
         0.43369774432    0.23818412855984
 p    1 1.00
              0.120675                   1
 d    4 1.00
          27.559479426   0.036950140313562
          7.4687020327    0.18821519783039
          2.4345903574    0.44641244239929
         0.78244754808     0.5681617303244
 d    1 1.00
         0.21995774311                   1
 f    1 1.00
                 1.147                   1

2 0
 s    6 1.00
          51528.086349  0.0017695545768669
          7737.2103487   0.013556436258096
           1760.374847   0.067162645785071
          496.87706544    0.23295905918518
          161.46520598    0.47040576982722
          55.466352268    0.35733072606876
 s    3 1.00
          107.54732999   -0.10605255446629
          12.408671897    0.62543981484169
          5.0423628826    0.44878820793655
 s    3 1.00
          8.5461640165   -0.21819012081133
          1.3900441221    0.70422525667731
         0.56066602876    0.42488555412558
 s    1 1.00
        0.071483705972                   1
 s    1 1.00
        0.028250687604                   1
 p    5 1.00
          640.48536096  0.0093555063746755
          150.69711194   0.068993338492216
          47.503755296     0.2634118959318
          16.934120165    0.51034501651775
           6.240968059    0.33195512953954
 p    3 1.00
          3.0885463206    0.32917682676976
          1.1791047769    0.55491385190365
         0.43369774432    0.23818412855984
 p    1 1.00
              0.120675                   1
 d    4 1.00
          27.559479426   0.036950140313562
          7.4687020327    0.18821519783039
          2.4345903574    0.44641244239929
         0.78244754808     0.5681617303244
 d    1 1.00
         0.21995774311                   1
 f    1 1.00
                 1.147                   1

3 0
 s    5 1.00
          2266.1767785  -0.0053893503921743
          340.87010191   -0.04023472138896
          77.363135167   -0.18008184205526
           21.47964494   -0.46828857657651
          6.6589433124   -0.44692617160187
 s    1 1.00
         0.80975975668                   1
 s    1 1.00
         0.25530772234                   1
 p    3 1.00
          17.721504317   0.062630248763161
           3.863550544    0.33331138482352
          1.0480920883    0.74148638308122
 p    1 1.00
         0.27641544411                   1
 d    1 1.00
                   1.2                   1

4 0
 s    5 1.00
          1712.8415853  -0.0054477995804909
          257.64812677  -0.040627174632423
          58.458245853   -0.18111962250584
          16.198367905   -0.46843975563173
          5.0052600809   -0.44616846289231
 s    1 1.00
         0.58731856571                   1
 s    1 1.00
         0.18764592253                   1
 p    3 1.00
          13.571470233  -0.058848116969522
          2.9257372874   -0.32024624762471
         0.79927750754   -0.75328226520436
 p    1 1.00
         0.21954348034                   1
 d    1 1.00
                     1                   1

5 0
 s    3 1.00
             13.010701   0.033485484812989
             1.9622572    0.23472187088125
            0.44453796    0.81377028525955
 s    1 1.00
            0.12194962                   1
 p    1 1.00
                   0.8                   1

6 0
 s    3 1.00
             13.010701   0.033485484812989
             1.9622572    0.23472187088125
            0.44453796    0.81377028525955
 s    1 1.00
            0.12194962                   1
 p    1 1.00
                   0.8                   1

7 0
 s    3 1.00
             13.010701   0.033485484812989
             1.9622572    0.23472187088125
            0.44453796    0.81377028525955
 s    1 1.00
            0.12194962                   1
 p    1 1.00
                   0.8                   1

8 0
 s    5 1.00
          1712.8415853  -0.0054477995804909
          257.64812677  -0.040627174632423
          58.458245853   -0.18111962250584
          16.198367905   -0.46843975563173
          5.0052600809   -0.44616846289231
 s    1 1.00
         0.58731856571                   1
 s    1 1.00
         0.18764592253                   1
 p    3 1.00
          13.571470233  -0.058848116969522
          2.9257372874   -0.32024624762471
         0.79927750754   -0.75328226520436
 p    1 1.00
         0.21954348034                   1
 d    1 1.00
                     1                   1

9 0
 s    3 1.00
             13.010701   0.033485484812989
             1.9622572    0.23472187088125
            0.44453796    0.81377028525955
 s    1 1.00
            0.12194962                   1
 p    1 1.00
                   0.8                   1

10 0
 s    3 1.00
             13.010701   0.033485484812989
             1.9622572    0.23472187088125
            0.44453796    0.81377028525955
 s    1 1.00
            0.12194962                   1
 p    1 1.00
                   0.8                   1

11 0
 s    3 1.00
             13.010701   0.033485484812989
             1.9622572    0.23472187088125
            0.44453796    0.81377028525955
 s    1 1.00
            0.12194962                   1
 p    1 1.00
                   0.8                   1

12 0
 s    5 1.00
          1712.8415853  -0.0054477995804909
          257.64812677  -0.040627174632423
          58.458245853   -0.18111962250584
          16.198367905   -0.46843975563173
          5.0052600809   -0.44616846289231
 s    1 1.00
         0.58731856571                   1
 s    1 1.00
         0.18764592253                   1
 p    3 1.00
          13.571470233  -0.058848116969522
          2.9257372874   -0.32024624762471
         0.79927750754   -0.75328226520436
 p    1 1.00
         0.21954348034                   1
 d    1 1.00
                     1                   1

13 0
 s    3 1.00
             13.010701   0.033485484812989
             1.9622572    0.23472187088125
            0.44453796    0.81377028525955
 s    1 1.00
            0.12194962                   1
 p    1 1.00
                   0.8                   1

14 0
 s    3 1.00
             13.010701   0.033485484812989
             1.9622572    0.23472187088125
            0.44453796    0.81377028525955
 s    1 1.00
            0.12194962                   1
 p    1 1.00
                   0.8                   1

15 0
 s    3 1.00
             13.010701   0.033485484812989
             1.9622572    0.23472187088125
            0.44453796    0.81377028525955
 s    1 1.00
            0.12194962                   1
 p    1 1.00
                   0.8                   1

16 0
 s    5 1.00
          1712.8415853  -0.0054477995804909
          257.64812677  -0.040627174632423
          58.458245853   -0.18111962250584
          16.198367905   -0.46843975563173
          5.0052600809   -0.44616846289231
 s    1 1.00
         0.58731856571                   1
 s    1 1.00
         0.18764592253                   1
 p    3 1.00
          13.571470233  -0.058848116969522
          2.9257372874   -0.32024624762471
         0.79927750754   -0.75328226520436
 p    1 1.00
         0.21954348034                   1
 d    1 1.00
                     1                   1

17 0
 s    3 1.00
             13.010701   0.033485484812989
             1.9622572    0.23472187088125
            0.44453796    0.81377028525955
 s    1 1.00
            0.12194962                   1
 p    1 1.00
                   0.8                   1

18 0
 s    3 1.00
             13.010701   0.033485484812989
             1.9622572    0.23472187088125
            0.44453796    0.81377028525955
 s    1 1.00
            0.12194962                   1
 p    1 1.00
                   0.8                   1

19 0
 s    3 1.00
             13.010701   0.033485484812989
             1.9622572    0.23472187088125
            0.44453796    0.81377028525955
 s    1 1.00
            0.12194962                   1
 p    1 1.00
                   0.8                   1

20 0
 s    5 1.00
          1712.8415853  -0.0054477995804909
          257.64812677  -0.040627174632423
          58.458245853   -0.18111962250584
          16.198367905   -0.46843975563173
          5.0052600809   -0.44616846289231
 s    1 1.00
         0.58731856571                   1
 s    1 1.00
         0.18764592253                   1
 p    3 1.00
          13.571470233  -0.058848116969522
          2.9257372874   -0.32024624762471
         0.79927750754   -0.75328226520436
 p    1 1.00
         0.21954348034                   1
 d    1 1.00
                     1                   1

21 0
 s    3 1.00
             13.010701   0.033485484812989
             1.9622572    0.23472187088125
            0.44453796    0.81377028525955
 s    1 1.00
            0.12194962                   1
 p    1 1.00
                   0.8                   1

22 0
 s    3 1.00
             13.010701   0.033485484812989
             1.9622572    0.23472187088125
            0.44453796    0.81377028525955
 s    1 1.00
            0.12194962                   1
 p    1 1.00
                   0.8                   1

23 0
 s    3 1.00
             13.010701   0.033485484812989
             1.9622572    0.23472187088125
            0.44453796    0.81377028525955
 s    1 1.00
            0.12194962                   1
 p    1 1.00
                   0.8                   1

24 0
 s    5 1.00
          1712.8415853  -0.0054477995804909
          257.64812677  -0.040627174632423
          58.458245853   -0.18111962250584
          16.198367905   -0.46843975563173
          5.0052600809   -0.44616846289231
 s    1 1.00
         0.58731856571                   1
 s    1 1.00
         0.18764592253                   1
 p    3 1.00
          13.571470233  -0.058848116969522
          2.9257372874   -0.32024624762471
         0.79927750754   -0.75328226520436
 p    1 1.00
         0.21954348034                   1
 d    1 1.00
                     1                   1

25 0
 s    3 1.00
             13.010701   0.033485484812989
             1.9622572    0.23472187088125
            0.44453796    0.81377028525955
 s    1 1.00
            0.12194962                   1
 p    1 1.00
                   0.8                   1

26 0
 s    3 1.00
             13.010701   0.033485484812989
             1.9622572    0.23472187088125
            0.44453796    0.81377028525955
 s    1 1.00
            0.12194962                   1
 p    1 1.00
                   0.8                   1

27 0
 s    3 1.00
             13.010701   0.033485484812989
             1.9622572    0.23472187088125
            0.44453796    0.81377028525955
 s    1 1.00
            0.12194962                   1
 p    1 1.00
                   0.8                   1

28 0
 s    5 1.00
          1712.8415853  -0.0054477995804909
          257.64812677  -0.040627174632423
          58.458245853   -0.18111962250584
          16.198367905   -0.46843975563173
          5.0052600809   -0.44616846289231
 s    1 1.00
         0.58731856571                   1
 s    1 1.00
         0.18764592253                   1
 p    3 1.00
          13.571470233  -0.058848116969522
          2.9257372874   -0.32024624762471
         0.79927750754   -0.75328226520436
 p    1 1.00
         0.21954348034                   1
 d    1 1.00
                     1                   1

29 0
 s    3 1.00
             13.010701   0.033485484812989
             1.9622572    0.23472187088125
            0.44453796    0.81377028525955
 s    1 1.00
            0.12194962                   1
 p    1 1.00
                   0.8                   1

30 0
 s    3 1.00
             13.010701   0.033485484812989
             1.9622572    0.23472187088125
            0.44453796    0.81377028525955
 s    1 1.00
            0.12194962                   1
 p    1 1.00
                   0.8                   1

31 0
 s    3 1.00
             13.010701   0.033485484812989
             1.9622572    0.23472187088125
            0.44453796    0.81377028525955
 s    1 1.00
            0.12194962                   1
 p    1 1.00
                   0.8                   1

32 0
 s    5 1.00
          1712.8415853  -0.0054477995804909
          257.64812677  -0.040627174632423
          58.458245853   -0.18111962250584
          16.198367905   -0.46843975563173
          5.0052600809   -0.44616846289231
 s    1 1.00
         0.58731856571                   1
 s    1 1.00
         0.18764592253                   1
 p    3 1.00
          13.571470233  -0.058848116969522
          2.9257372874   -0.32024624762471
         0.79927750754   -0.75328226520436
 p    1 1.00
         0.21954348034                   1
 d    1 1.00
                     1                   1

33 0
 s    3 1.00
             13.010701   0.033485484812989
             1.9622572    0.23472187088125
            0.44453796    0.81377028525955
 s    1 1.00
            0.12194962                   1
 p    1 1.00
                   0.8                   1

34 0
 s    3 1.00
             13.010701   0.033485484812989
             1.9622572    0.23472187088125
            0.44453796    0.81377028525955
 s    1 1.00
            0.12194962                   1
 p    1 1.00
                   0.8                   1

35 0
 s    3 1.00
             13.010701   0.033485484812989
             1.9622572    0.23472187088125
            0.44453796    0.81377028525955
 s    1 1.00
            0.12194962                   1
 p    1 1.00
                   0.8                   1

36 0
 s    5 1.00
          1712.8415853  -0.0054477995804909
          257.64812677  -0.040627174632423
          58.458245853   -0.18111962250584
          16.198367905   -0.46843975563173
          5.0052600809   -0.44616846289231
 s    1 1.00
         0.58731856571                   1
 s    1 1.00
         0.18764592253                   1
 p    3 1.00
          13.571470233  -0.058848116969522
          2.9257372874   -0.32024624762471
         0.79927750754   -0.75328226520436
 p    1 1.00
         0.21954348034                   1
 d    1 1.00
                     1                   1

37 0
 s    3 1.00
             13.010701   0.033485484812989
             1.9622572    0.23472187088125
            0.44453796    0.81377028525955
 s    1 1.00
            0.12194962                   1
 p    1 1.00
                   0.8                   1

38 0
 s    3 1.00
             13.010701   0.033485484812989
             1.9622572    0.23472187088125
            0.44453796    0.81377028525955
 s    1 1.00
            0.12194962                   1
 p    1 1.00
                   0.8                   1

39 0
 s    3 1.00
             13.010701   0.033485484812989
             1.9622572    0.23472187088125
            0.44453796    0.81377028525955
 s    1 1.00
            0.12194962                   1
 p    1 1.00
                   0.8                   1

40 0
 s    5 1.00
          1712.8415853  -0.0054477995804909
          257.64812677  -0.040627174632423
          58.458245853   -0.18111962250584
          16.198367905   -0.46843975563173
          5.0052600809   -0.44616846289231
 s    1 1.00
         0.58731856571                   1
 s    1 1.00
         0.18764592253                   1
 p    3 1.00
          13.571470233  -0.058848116969522
          2.9257372874   -0.32024624762471
         0.79927750754   -0.75328226520436
 p    1 1.00
         0.21954348034                   1
 d    1 1.00
                     1                   1

41 0
 s    3 1.00
             13.010701   0.033485484812989
             1.9622572    0.23472187088125
            0.44453796    0.81377028525955
 s    1 1.00
            0.12194962                   1
 p    1 1.00
                   0.8                   1

42 0
 s    3 1.00
             13.010701   0.033485484812989
             1.9622572    0.23472187088125
            0.44453796    0.81377028525955
 s    1 1.00
            0.12194962                   1
 p    1 1.00
                   0.8                   1

43 0
 s    3 1.00
             13.010701   0.033485484812989
             1.9622572    0.23472187088125
            0.44453796    0.81377028525955
 s    1 1.00
            0.12194962                   1
 p    1 1.00
                   0.8                   1

[5d]
[7f]
[9g]

[MO]
 Sym= A
 Ene=               0
 Spin= Alpha
 Occup=    1.00000
   1    -3.2776761577906e-05
   2    2.7292537312171e-05
   3    -0.00060879514559987
   4    -0.0021546994935675
   5    0.0026113172872779
   6    -9.8624657280666e-05
   7    0.00021030027756184
   8    0.00018939876630586
   9    -0.00024330438753226
  10    -0.00053061758223506
  11    -0.0012662347799569
  12     0.010994815975038
  13    -0.0013734597005151
  14     0.015149369628536
  15    -0.013502198285219
  16    -0.0018237961479282
  17    -0.0084180369259888
  18    0.0027068354043314
  19    -0.007100959741339
  20    -0.013788913497978
  21    -0.002129572012128
  22    -0.0083424206209453
  23    0.0027096127262253
  24    -0.0075490956640107
  25    0.00013139533373515
  26    -0.00042154689912256
  27    0.00037886518270908
  28    -0.00035544108465117
  29    0.0002336254400045
  30    -0.00011525225006585
  31    -2.2336672227059e-05
  32    -3.3422603409239e-05
  33    2.9865973469906e-05
  34    -0.00061599705763386
  35    -0.0021837120858585
  36    0.0026984871229732
  37    0.00010689159952798
  38    -0.00021076380194188
  39    -0.00018695438040687
  40    0.00021903759882861
  41    0.00053755857883893
  42    0.0012555085956019
  43    -0.010945013575628
  44      0.00132598603094
  45    -0.015148805267899
  46     -0.01357037653136
  47    -0.0020997324292527
  48    -0.0085100209916596
  49    0.0027284296951944
  50    -0.0071035834485858
  51    -0.013916822071588
  52    -0.0023291750255846
  53    -0.0084218127050516
  54    0.0026487091110691
  55    -0.0075354190247111
  56    -0.0001267859407213
  57    0.00042379174960284
  58    -0.00038645096114759
  59    0.00034845829539229
  60    -0.00023586478051278
  61    0.00011539923621815
  62    1.3169923029673e-05
  63    -0.0015258415583257
  64    -0.00085791399037458
  65    -0.0024846213070625
  66    0.00022677448794961
  67    0.0001440920601514
  68    2.1373807682616e-05
  69    0.00032967722061982
  70    0.00022403649928284
  71    -0.00011059534822485
  72    0.00010367881716575
  73    3.6904290891884e-05
  74    -3.4038660812312e-05
  75    3.6829441399253e-07
  76    0.00012548845639093
  77    0.0033666553606933
  78    0.0093673631494926
  79    0.0015016392457104
  80    -0.052994705642923
  81     0.078191463573947
  82     0.095228813073424
  83     0.026384757285303
  84    -0.042435851584206
  85    -0.052309691712414
  86    -0.0010162532608263
  87    -0.0040468068666353
  88    0.0012995604178845
  89    0.0042252457362803
  90    -0.0018211528377395
  91      0.10010326992246
  92     0.021005165164949
  93    -0.0088307436577761
  94    0.00050201963809566
  95    0.0038240340799837
  96    -0.043946913991652
  97    -0.010117799498175
  98    0.0038458483521921
  99    -0.0040041661566794
 100    0.0014991893150225
 101    -0.057582486709556
 102    -0.0089316550758939
 103     0.001858561300643
 104      0.00468778790505
 105    -0.0031794788449155
 106    -0.0029776028415855
 107    -0.0091194068866909
 108    0.00031215338061119
 109     0.029688757696503
 110       -0.106662294479
 111    -0.072464120287825
 112    -0.019478984403389
 113     0.057279689001525
 114     0.033775214758776
 115    -0.004969510605861
 116    -0.00046996151342946
 117    -0.0023195787120004
 118    0.00049079586850887
 119    -0.0027111716069543
 120     0.076934211323888
 121     0.011752834748835
 122     0.006112205288467
 123    -0.0027846206658149
 124     0.002020405205617
 125    -0.094003453292974
 126    -0.022536422850427
 127    -0.002190754808528
 128    -0.0010323655947215
 129    -0.0091765743472654
 130      0.01825600845708
 131    0.0051838735900775
 132    -0.0030241000813308
 133    0.0022524376217101
 134    0.0031440538043578
 135    0.0029755202680304
 136    0.0082655356958891
 137    0.0015350429815938
 138    -0.026764850504783
 139     0.089633103495299
 140     0.076793166129966
 141     0.013283761051723
 142    -0.047294119821086
 143    -0.043303355172784
 144    -0.0025188852732215
 145    -0.0001030830506086
 146    0.00034443305992494
 147    -0.0050308212929345
 148    -0.0010273734597507
 149     0.090435974928107
 150     0.018914881043164
 151    -2.0662406081748e-05
 152    0.0086578352222635
 153    -0.00068676285373867
 154    -0.049745073454538
 155    -0.0077730776107194
 156    -0.0046991458003157
 157    -0.0024160631501682
 158    0.00043978507484071
 159    -0.041790210907229
 160    -0.0094847042294328
 161    0.0043421825130391
 162    -0.002816432091374
 163    0.0010516573600125
 164    -0.0031432129289709
 165    -0.009623947072095
 166    0.00026863704928146
 167     0.071367699979892
 168    -0.081059292681473
 169    -0.095369592208008
 170    -0.040894110876425
 171     0.043050155338841
 172     0.046164191126465
 173    -0.0041439979703146
 174    -0.00065734059526195
 175    -0.0044757816068725
 176    0.00087906546697911
 177    -0.0026019198172122
 178     0.031139349822466
 179    0.0069827564474069
 180    -0.00038570869121646
 181    0.0055366902618243
 182     0.001062563045366
 183     -0.10582051688735
 184     -0.02505827733238
 185    -0.0035507426246905
 186    -0.0042546500134448
 187     -0.00893815455166
 188     0.075715716578595
 189     0.012251762631142
 190     0.003706506594019
 191    -0.0042878680505134
 192    0.0044255282996843
 193    -8.024637603154e-05
 194    -0.00092481344055158
 195    0.00059462070729544
 196     -0.12115646983827
 197     0.030936523430725
 198     -0.14302823306889
 199     0.067066618991166
 200    -0.017035638000531
 201     0.078781472520989
 202    -0.0023000602307885
 203    0.0041142707357823
 204    -0.0023432932844867
 205    0.0023835489005832
 206    -0.0062509512014607
 207     -0.06876307066437
 208    -0.015144954105522
 209    0.0080301295349494
 210    0.00097613181738042
 211    -0.0029863011726456
 212    -0.070617711899636
 213     -0.01531617680865
 214    -0.00058394441847286
 215    -0.0084809072726474
 216    0.0021252394440704
 217      0.14097828933513
 218     0.030387785672506
 219    -0.010312817331293
 220     0.007949995617619
 221    -0.0031236044922446
 222     0.003379701602108
 223    0.0093919427319621
 224    0.0016295069194589
 225     0.053206627494677
 226     -0.07773507552787
 227    -0.095962646811275
 228    -0.026601521157617
 229      0.04231011603394
 230     0.053252527125527
 231    -0.00044560334082623
 232    -0.0041658904541551
 233    0.00096802014211498
 234    0.0044462267224802
 235    -0.0014378564202556
 236      -0.0626203767427
 237    -0.0096658421205552
 238    -0.0016601152756004
 239    -0.0053261875054669
 240    0.0027385096687532
 241    -0.038221494778866
 242    -0.0090090940686104
 243    -0.003813112674549
 244    0.0040279287955391
 245    -0.00066646031908943
 246     0.099423209008864
 247     0.020644692482145
 248    0.0085909246450766
 249    0.00011174454311276
 250    -0.004223472742656
 251    -0.0029330263695664
 252    -0.0090438795642969
 253    0.00026171098892433
 254    -0.029251872224414
 255      0.10681874812555
 256     0.072658832109225
 257     0.018694074019447
 258     -0.05715740258191
 259    -0.033919142225959
 260    -0.0051256238928793
 261    2.8142499219459e-06
 262    -0.0025813196301391
 263    0.00084424403229043
 264    -0.0020958987195094
 265    -0.096556081440056
 266    -0.023186241837968
 267     0.001392718762016
 268    0.0011846716110967
 269    0.0094983676808611
 270     0.071899315178905
 271      0.01139482196715
 272    -0.0059420737623743
 273    0.0020121343967726
 274    -0.0024542490800134
 275     0.025620063905398
 276    0.0062884983227022
 277    0.0036998327292213
 278    -0.0016170358753256
 279    -0.0031204761752499
 280    -0.003231580586665
 281    -0.0098799734247252
 282    0.00014879099925934
 283    -0.072008530838498
 284     0.079848306768789
 285     0.098126523787331
 286     0.041405569641584
 287    -0.042808124394503
 288    -0.047372654644256
 289    -0.0045124286535397
 290    -0.00076770192358822
 291    -0.0040567466564267
 292    0.0007588460542752
 293    -0.0028270030991546
 294     -0.10588429552833
 295     -0.02511096688895
 296    0.0036593580005679
 297    0.0037642263557933
 298    0.0091721353215962
 299     0.028122176922835
 300    0.0068106580544245
 301     0.000621366704487
 302    -0.005397771129245
 303    -0.0014858372032541
 304     0.079017498145864
 305     0.012523904379478
 306    -0.0040145015967369
 307    0.0046381621400407
 308    -0.0041275218357965
 309    0.0029183308304445
 310    0.0080575766564527
 311    0.0013254095646138
 312     0.024413121158208
 313      -0.0911897261858
 314    -0.078099311057411
 315    -0.012136040242005
 316     0.047832831589013
 317     0.043677912023835
 318    -0.0027057471458216
 319    -0.00058230430154705
 320    0.0001934927716403
 321    -0.0048644439673037
 322    -0.0015838581529326
 323     0.091851870152448
 324      0.01944871733495
 325    0.00078768173729996
 326    -0.0087451145210008
 327    0.00085717856289357
 328    -0.049294968599937
 329    -0.011004153245421
 330    -0.0046951489295732
 331    0.0024593042998822
 332    -0.0018413603724355
 333    -0.043673459182263
 334    -0.0067458122212965
 335    0.0042214000624557
 336    0.0027981074063927
 337    0.00013398917427955
 338    -4.4192375102945e-05
 339    -0.0007527070035213
 340    0.00066256583083419
 341      0.12191016896412
 342    -0.030314074499535
 343      0.14303284633321
 344    -0.067310410692044