[Molden Format]
made by pyscf v[2.1.1]
[Atoms] (AU)
Cr   1   24     1.56143912275337    -2.46507591990239    -1.82404491365355
Cr   2   24    -1.56139565905251     2.46513072196000     1.82399011159594
O   3   8     0.00002078698737     0.00002834589187    -0.00002645616574
N   4   7     5.12832174930954    -1.10581670549011    -0.60767356069801
H   5   1     6.65216855026694    -1.66292686427314    -1.66487895135981
H   6   1     5.63710405218294    -1.59213394419468     1.18765885421890
H   7   1     5.20084187906585     0.81566059741989    -0.65509245834172
N   8   7     1.71230729763415    -0.02251608677419    -4.99594076510539
H   9   1     0.29795878723855     1.27247165241550    -4.90823668593820
H   10   1     1.50271021425414    -0.85583806455427    -6.73026148236459
H   11   1     3.34039895052705     0.99863710888315    -5.18656310846864
N   12   7     1.41057094787259    -4.90763575303059     1.34785282752440
H   13   1     1.64193389675534    -6.79355407945465     0.97314659318890
H   14   1    -0.29048681014202    -4.81040367474334     2.24006056107205
H   15   1     2.72468082571676    -4.56691435331926     2.71738081369757
N   16   7    -2.00544350380280    -3.82433513431467    -3.04041437688297
H   17   1    -2.87205678671934    -5.05516478184926    -1.83221042023780
H   18   1    -2.03637832046193    -4.76397121413665    -4.73247136936628
H   19   1    -3.24475802163669    -2.37551046050250    -3.28123540501917
N   20   7     3.37923471211299    -5.33493873459111    -3.94755661599306
H   21   1     4.17102617885350    -4.76109883042731    -5.61685374703210
H   22   1     2.26176595533881    -6.82326057413281    -4.47610923358166
H   23   1     4.85383336053810    -6.19899521806112    -3.03922195969837
N   24   7    -5.12827828560868     1.10587339727385     0.60762064836653
H   25   1    -5.15408816501799    -0.81544705836782     0.54662784797006
H   26   1    -5.69743166898356     1.68113626520945    -1.14337690194197
H   27   1    -6.63528195761783     1.56841410187914     1.73267665553083
N   28   7    -1.71226383393328     0.02257088883181     4.99588785277390
H   29   1    -1.62991523860311     0.86667375415253     6.73575491620870
H   30   1    -0.22416876152653    -1.19157625647512     4.98456461383551
H   31   1    -3.28782110056328    -1.08746368536834     5.11339858210385
N   32   7     2.00548696750367     3.82438993637228     3.04035957482536
H   33   1     2.05186651577887     4.68410571893416     4.77402266739321
H   34   1     2.83712330958063     5.12208376337235     1.87805706574587
H   35   1     3.26582090902109     2.38241174030942     3.19051154350492
N   36   7    -1.41052748417173     4.90769055508820    -1.34790762958202
H   37   1    -1.75003190025884     6.78104976168840    -0.99229329828299
H   38   1    -2.65834387984003     4.49309409198925    -2.75785496783350
H   39   1     0.32278033988471     4.89894112313146    -2.18344058692784
N   40   7    -3.37919124841212     5.33499353664873     3.94750181393545
H   41   1    -2.26357064378777     6.83195331430581     4.45515784003860
H   42   1    -4.15358022727151     4.76963661305810     5.62761006813313
H   43   1    -4.86681766873998     6.18449345978121     3.04686590187224
[GTO]
1 0
 s    6 1.00
          51528.086349  0.0017695545768669
          7737.2103487   0.013556436258096
           1760.374847   0.067162645785071
          496.87706544    0.23295905918518
          161.46520598    0.47040576982722
          55.466352268    0.35733072606876
 s    3 1.00
          107.54732999   -0.10605255446629
          12.408671897    0.62543981484169
          5.0423628826    0.44878820793655
 s    3 1.00
          8.5461640165   -0.21819012081133
          1.3900441221    0.70422525667731
         0.56066602876    0.42488555412558
 s    1 1.00
        0.071483705972                   1
 s    1 1.00
        0.028250687604                   1
 p    5 1.00
          640.48536096  0.0093555063746755
          150.69711194   0.068993338492216
          47.503755296     0.2634118959318
          16.934120165    0.51034501651775
           6.240968059    0.33195512953954
 p    3 1.00
          3.0885463206    0.32917682676976
          1.1791047769    0.55491385190365
         0.43369774432    0.23818412855984
 p    1 1.00
              0.120675                   1
 d    4 1.00
          27.559479426   0.036950140313562
          7.4687020327    0.18821519783039
          2.4345903574    0.44641244239929
         0.78244754808     0.5681617303244
 d    1 1.00
         0.21995774311                   1
 f    1 1.00
                 1.147                   1

2 0
 s    6 1.00
          51528.086349  0.0017695545768669
          7737.2103487   0.013556436258096
           1760.374847   0.067162645785071
          496.87706544    0.23295905918518
          161.46520598    0.47040576982722
          55.466352268    0.35733072606876
 s    3 1.00
          107.54732999   -0.10605255446629
          12.408671897    0.62543981484169
          5.0423628826    0.44878820793655
 s    3 1.00
          8.5461640165   -0.21819012081133
          1.3900441221    0.70422525667731
         0.56066602876    0.42488555412558
 s    1 1.00
        0.071483705972                   1
 s    1 1.00
        0.028250687604                   1
 p    5 1.00
          640.48536096  0.0093555063746755
          150.69711194   0.068993338492216
          47.503755296     0.2634118959318
          16.934120165    0.51034501651775
           6.240968059    0.33195512953954
 p    3 1.00
          3.0885463206    0.32917682676976
          1.1791047769    0.55491385190365
         0.43369774432    0.23818412855984
 p    1 1.00
              0.120675                   1
 d    4 1.00
          27.559479426   0.036950140313562
          7.4687020327    0.18821519783039
          2.4345903574    0.44641244239929
         0.78244754808     0.5681617303244
 d    1 1.00
         0.21995774311                   1
 f    1 1.00
                 1.147                   1

3 0
 s    5 1.00
          2266.1767785  -0.0053893503921743
          340.87010191   -0.04023472138896
          77.363135167   -0.18008184205526
           21.47964494   -0.46828857657651
          6.6589433124   -0.44692617160187
 s    1 1.00
         0.80975975668                   1
 s    1 1.00
         0.25530772234                   1
 p    3 1.00
          17.721504317   0.062630248763161
           3.863550544    0.33331138482352
          1.0480920883    0.74148638308122
 p    1 1.00
         0.27641544411                   1
 d    1 1.00
                   1.2                   1

4 0
 s    5 1.00
          1712.8415853  -0.0054477995804909
          257.64812677  -0.040627174632423
          58.458245853   -0.18111962250584
          16.198367905   -0.46843975563173
          5.0052600809   -0.44616846289231
 s    1 1.00
         0.58731856571                   1
 s    1 1.00
         0.18764592253                   1
 p    3 1.00
          13.571470233  -0.058848116969522
          2.9257372874   -0.32024624762471
         0.79927750754   -0.75328226520436
 p    1 1.00
         0.21954348034                   1
 d    1 1.00
                     1                   1

5 0
 s    3 1.00
             13.010701   0.033485484812989
             1.9622572    0.23472187088125
            0.44453796    0.81377028525955
 s    1 1.00
            0.12194962                   1
 p    1 1.00
                   0.8                   1

6 0
 s    3 1.00
             13.010701   0.033485484812989
             1.9622572    0.23472187088125
            0.44453796    0.81377028525955
 s    1 1.00
            0.12194962                   1
 p    1 1.00
                   0.8                   1

7 0
 s    3 1.00
             13.010701   0.033485484812989
             1.9622572    0.23472187088125
            0.44453796    0.81377028525955
 s    1 1.00
            0.12194962                   1
 p    1 1.00
                   0.8                   1

8 0
 s    5 1.00
          1712.8415853  -0.0054477995804909
          257.64812677  -0.040627174632423
          58.458245853   -0.18111962250584
          16.198367905   -0.46843975563173
          5.0052600809   -0.44616846289231
 s    1 1.00
         0.58731856571                   1
 s    1 1.00
         0.18764592253                   1
 p    3 1.00
          13.571470233  -0.058848116969522
          2.9257372874   -0.32024624762471
         0.79927750754   -0.75328226520436
 p    1 1.00
         0.21954348034                   1
 d    1 1.00
                     1                   1

9 0
 s    3 1.00
             13.010701   0.033485484812989
             1.9622572    0.23472187088125
            0.44453796    0.81377028525955
 s    1 1.00
            0.12194962                   1
 p    1 1.00
                   0.8                   1

10 0
 s    3 1.00
             13.010701   0.033485484812989
             1.9622572    0.23472187088125
            0.44453796    0.81377028525955
 s    1 1.00
            0.12194962                   1
 p    1 1.00
                   0.8                   1

11 0
 s    3 1.00
             13.010701   0.033485484812989
             1.9622572    0.23472187088125
            0.44453796    0.81377028525955
 s    1 1.00
            0.12194962                   1
 p    1 1.00
                   0.8                   1

12 0
 s    5 1.00
          1712.8415853  -0.0054477995804909
          257.64812677  -0.040627174632423
          58.458245853   -0.18111962250584
          16.198367905   -0.46843975563173
          5.0052600809   -0.44616846289231
 s    1 1.00
         0.58731856571                   1
 s    1 1.00
         0.18764592253                   1
 p    3 1.00
          13.571470233  -0.058848116969522
          2.9257372874   -0.32024624762471
         0.79927750754   -0.75328226520436
 p    1 1.00
         0.21954348034                   1
 d    1 1.00
                     1                   1

13 0
 s    3 1.00
             13.010701   0.033485484812989
             1.9622572    0.23472187088125
            0.44453796    0.81377028525955
 s    1 1.00
            0.12194962                   1
 p    1 1.00
                   0.8                   1

14 0
 s    3 1.00
             13.010701   0.033485484812989
             1.9622572    0.23472187088125
            0.44453796    0.81377028525955
 s    1 1.00
            0.12194962                   1
 p    1 1.00
                   0.8                   1

15 0
 s    3 1.00
             13.010701   0.033485484812989
             1.9622572    0.23472187088125
            0.44453796    0.81377028525955
 s    1 1.00
            0.12194962                   1
 p    1 1.00
                   0.8                   1

16 0
 s    5 1.00
          1712.8415853  -0.0054477995804909
          257.64812677  -0.040627174632423
          58.458245853   -0.18111962250584
          16.198367905   -0.46843975563173
          5.0052600809   -0.44616846289231
 s    1 1.00
         0.58731856571                   1
 s    1 1.00
         0.18764592253                   1
 p    3 1.00
          13.571470233  -0.058848116969522
          2.9257372874   -0.32024624762471
         0.79927750754   -0.75328226520436
 p    1 1.00
         0.21954348034                   1
 d    1 1.00
                     1                   1

17 0
 s    3 1.00
             13.010701   0.033485484812989
             1.9622572    0.23472187088125
            0.44453796    0.81377028525955
 s    1 1.00
            0.12194962                   1
 p    1 1.00
                   0.8                   1

18 0
 s    3 1.00
             13.010701   0.033485484812989
             1.9622572    0.23472187088125
            0.44453796    0.81377028525955
 s    1 1.00
            0.12194962                   1
 p    1 1.00
                   0.8                   1

19 0
 s    3 1.00
             13.010701   0.033485484812989
             1.9622572    0.23472187088125
            0.44453796    0.81377028525955
 s    1 1.00
            0.12194962                   1
 p    1 1.00
                   0.8                   1

20 0
 s    5 1.00
          1712.8415853  -0.0054477995804909
          257.64812677  -0.040627174632423
          58.458245853   -0.18111962250584
          16.198367905   -0.46843975563173
          5.0052600809   -0.44616846289231
 s    1 1.00
         0.58731856571                   1
 s    1 1.00
         0.18764592253                   1
 p    3 1.00
          13.571470233  -0.058848116969522
          2.9257372874   -0.32024624762471
         0.79927750754   -0.75328226520436
 p    1 1.00
         0.21954348034                   1
 d    1 1.00
                     1                   1

21 0
 s    3 1.00
             13.010701   0.033485484812989
             1.9622572    0.23472187088125
            0.44453796    0.81377028525955
 s    1 1.00
            0.12194962                   1
 p    1 1.00
                   0.8                   1

22 0
 s    3 1.00
             13.010701   0.033485484812989
             1.9622572    0.23472187088125
            0.44453796    0.81377028525955
 s    1 1.00
            0.12194962                   1
 p    1 1.00
                   0.8                   1

23 0
 s    3 1.00
             13.010701   0.033485484812989
             1.9622572    0.23472187088125
            0.44453796    0.81377028525955
 s    1 1.00
            0.12194962                   1
 p    1 1.00
                   0.8                   1

24 0
 s    5 1.00
          1712.8415853  -0.0054477995804909
          257.64812677  -0.040627174632423
          58.458245853   -0.18111962250584
          16.198367905   -0.46843975563173
          5.0052600809   -0.44616846289231
 s    1 1.00
         0.58731856571                   1
 s    1 1.00
         0.18764592253                   1
 p    3 1.00
          13.571470233  -0.058848116969522
          2.9257372874   -0.32024624762471
         0.79927750754   -0.75328226520436
 p    1 1.00
         0.21954348034                   1
 d    1 1.00
                     1                   1

25 0
 s    3 1.00
             13.010701   0.033485484812989
             1.9622572    0.23472187088125
            0.44453796    0.81377028525955
 s    1 1.00
            0.12194962                   1
 p    1 1.00
                   0.8                   1

26 0
 s    3 1.00
             13.010701   0.033485484812989
             1.9622572    0.23472187088125
            0.44453796    0.81377028525955
 s    1 1.00
            0.12194962                   1
 p    1 1.00
                   0.8                   1

27 0
 s    3 1.00
             13.010701   0.033485484812989
             1.9622572    0.23472187088125
            0.44453796    0.81377028525955
 s    1 1.00
            0.12194962                   1
 p    1 1.00
                   0.8                   1

28 0
 s    5 1.00
          1712.8415853  -0.0054477995804909
          257.64812677  -0.040627174632423
          58.458245853   -0.18111962250584
          16.198367905   -0.46843975563173
          5.0052600809   -0.44616846289231
 s    1 1.00
         0.58731856571                   1
 s    1 1.00
         0.18764592253                   1
 p    3 1.00
          13.571470233  -0.058848116969522
          2.9257372874   -0.32024624762471
         0.79927750754   -0.75328226520436
 p    1 1.00
         0.21954348034                   1
 d    1 1.00
                     1                   1

29 0
 s    3 1.00
             13.010701   0.033485484812989
             1.9622572    0.23472187088125
            0.44453796    0.81377028525955
 s    1 1.00
            0.12194962                   1
 p    1 1.00
                   0.8                   1

30 0
 s    3 1.00
             13.010701   0.033485484812989
             1.9622572    0.23472187088125
            0.44453796    0.81377028525955
 s    1 1.00
            0.12194962                   1
 p    1 1.00
                   0.8                   1

31 0
 s    3 1.00
             13.010701   0.033485484812989
             1.9622572    0.23472187088125
            0.44453796    0.81377028525955
 s    1 1.00
            0.12194962                   1
 p    1 1.00
                   0.8                   1

32 0
 s    5 1.00
          1712.8415853  -0.0054477995804909
          257.64812677  -0.040627174632423
          58.458245853   -0.18111962250584
          16.198367905   -0.46843975563173
          5.0052600809   -0.44616846289231
 s    1 1.00
         0.58731856571                   1
 s    1 1.00
         0.18764592253                   1
 p    3 1.00
          13.571470233  -0.058848116969522
          2.9257372874   -0.32024624762471
         0.79927750754   -0.75328226520436
 p    1 1.00
         0.21954348034                   1
 d    1 1.00
                     1                   1

33 0
 s    3 1.00
             13.010701   0.033485484812989
             1.9622572    0.23472187088125
            0.44453796    0.81377028525955
 s    1 1.00
            0.12194962                   1
 p    1 1.00
                   0.8                   1

34 0
 s    3 1.00
             13.010701   0.033485484812989
             1.9622572    0.23472187088125
            0.44453796    0.81377028525955
 s    1 1.00
            0.12194962                   1
 p    1 1.00
                   0.8                   1

35 0
 s    3 1.00
             13.010701   0.033485484812989
             1.9622572    0.23472187088125
            0.44453796    0.81377028525955
 s    1 1.00
            0.12194962                   1
 p    1 1.00
                   0.8                   1

36 0
 s    5 1.00
          1712.8415853  -0.0054477995804909
          257.64812677  -0.040627174632423
          58.458245853   -0.18111962250584
          16.198367905   -0.46843975563173
          5.0052600809   -0.44616846289231
 s    1 1.00
         0.58731856571                   1
 s    1 1.00
         0.18764592253                   1
 p    3 1.00
          13.571470233  -0.058848116969522
          2.9257372874   -0.32024624762471
         0.79927750754   -0.75328226520436
 p    1 1.00
         0.21954348034                   1
 d    1 1.00
                     1                   1

37 0
 s    3 1.00
             13.010701   0.033485484812989
             1.9622572    0.23472187088125
            0.44453796    0.81377028525955
 s    1 1.00
            0.12194962                   1
 p    1 1.00
                   0.8                   1

38 0
 s    3 1.00
             13.010701   0.033485484812989
             1.9622572    0.23472187088125
            0.44453796    0.81377028525955
 s    1 1.00
            0.12194962                   1
 p    1 1.00
                   0.8                   1

39 0
 s    3 1.00
             13.010701   0.033485484812989
             1.9622572    0.23472187088125
            0.44453796    0.81377028525955
 s    1 1.00
            0.12194962                   1
 p    1 1.00
                   0.8                   1

40 0
 s    5 1.00
          1712.8415853  -0.0054477995804909
          257.64812677  -0.040627174632423
          58.458245853   -0.18111962250584
          16.198367905   -0.46843975563173
          5.0052600809   -0.44616846289231
 s    1 1.00
         0.58731856571                   1
 s    1 1.00
         0.18764592253                   1
 p    3 1.00
          13.571470233  -0.058848116969522
          2.9257372874   -0.32024624762471
         0.79927750754   -0.75328226520436
 p    1 1.00
         0.21954348034                   1
 d    1 1.00
                     1                   1

41 0
 s    3 1.00
             13.010701   0.033485484812989
             1.9622572    0.23472187088125
            0.44453796    0.81377028525955
 s    1 1.00
            0.12194962                   1
 p    1 1.00
                   0.8                   1

42 0
 s    3 1.00
             13.010701   0.033485484812989
             1.9622572    0.23472187088125
            0.44453796    0.81377028525955
 s    1 1.00
            0.12194962                   1
 p    1 1.00
                   0.8                   1

43 0
 s    3 1.00
             13.010701   0.033485484812989
             1.9622572    0.23472187088125
            0.44453796    0.81377028525955
 s    1 1.00
            0.12194962                   1
 p    1 1.00
                   0.8                   1

[5d]
[7f]
[9g]

[MO]
 Sym= A
 Ene=               0
 Spin= Alpha
 Occup=    1.00000
   1    -3.2776761577739e-05
   2    2.7292537311888e-05
   3    -0.00060879514559739
   4    -0.0021546994935406
   5     0.002611317287116
   6    -9.8624657281937e-05
   7    0.00021030027756052
   8    0.0001893987663075
   9    -0.00024330438752787
  10    -0.00053061758222996
  11    -0.0012662347799636
  12     0.010994815975003
  13    -0.001373459700551
  14     0.015149369628601
  15    -0.013502198285221
  16    -0.0018237961479308
  17    -0.0084180369259862
  18    0.0027068354043282
  19    -0.007100959741339
  20    -0.013788913497985
  21    -0.0021295720121242
  22    -0.0083424206209487
  23    0.0027096127262382
  24    -0.0075490956639955
  25    0.00013139533373508
  26    -0.00042154689912287
  27    0.0003788651827086
  28    -0.00035544108465192
  29    0.00023362544000431
  30    -0.00011525225006565
  31    -2.2336672226885e-05
  32    -3.3422603409852e-05
  33    2.9865973471481e-05
  34    -0.00061599705764341
  35    -0.002183712085823
  36    0.0026984871230678
  37    0.00010689159952771
  38    -0.00021076380194101
  39    -0.00018695438040608
  40    0.00021903759883004
  41    0.00053755857883536
  42    0.0012555085956002
  43    -0.010945013575647
  44    0.0013259860309783
  45    -0.015148805267874
  46    -0.013570376531359
  47    -0.0020997324292498
  48    -0.0085100209916612
  49    0.0027284296951925
  50    -0.0071035834485835
  51    -0.013916822071588
  52    -0.0023291750255773
  53    -0.0084218127050472
  54    0.0026487091110636
  55    -0.0075354190247117
  56    -0.00012678594072174
  57    0.00042379174960286
  58    -0.00038645096114724
  59    0.00034845829539222
  60    -0.0002358647805132
  61    0.00011539923621836
  62    1.3169923029552e-05
  63    -0.0015258415583266
  64    -0.00085791399037809
  65    -0.002484621307041
  66    0.00022677448795089
  67    0.00014409206014456
  68    2.1373807682706e-05
  69    0.00032967722062446
  70    0.00022403649929168
  71    -0.00011059534823067
  72    0.00010367881716611
  73    3.6904290891518e-05
  74    -3.4038660811904e-05
  75    3.6829441418922e-07
  76    0.00012548845639045
  77    0.0033666553606924
  78    0.0093673631494894
  79    0.0015016392456749
  80    -0.052994705642915
  81     0.078191463573912
  82     0.095228813073437
  83     0.026384757285288
  84    -0.042435851584197
  85    -0.052309691712415
  86    -0.0010162532608269
  87    -0.0040468068666351
  88    0.0012995604178845
  89      0.00422524573628
  90    -0.0018211528377388
  91      0.10010326992245
  92     0.021005165164995
  93    -0.0088307436577788
  94     0.000502019638098
  95    0.0038240340799845
  96    -0.043946913991667
  97    -0.010117799498176
  98    0.0038458483521923
  99    -0.0040041661566777
 100    0.0014991893150216
 101     -0.05758248670952
 102    -0.0089316550758542
 103    0.0018585613006419
 104    0.0046877879050421
 105    -0.0031794788449155
 106    -0.0029776028415881
 107    -0.0091194068867116
 108    0.00031215338065072
 109     0.029688757696487
 110     -0.10666229447902
 111    -0.072464120287836
 112    -0.019478984403379
 113     0.057279689001526
 114     0.033775214758819
 115    -0.0049695106058628
 116    -0.00046996151342998
 117    -0.0023195787120013
 118    0.00049079586850883
 119    -0.0027111716069539
 120     0.076934211323889
 121     0.011752834748835
 122    0.0061122052884682
 123    -0.0027846206658133
 124    0.0020204052056154
 125    -0.094003453293004
 126    -0.022536422850392
 127    -0.0021907548085281
 128    -0.0010323655947196
 129    -0.0091765743472683
 130     0.018256008457099
 131    0.0051838735900863
 132    -0.0030241000813317
 133    0.0022524376217111
 134     0.003144053804357
 135    0.0029755202680309
 136    0.0082655356958993
 137      0.00153504298152
 138    -0.026764850504766
 139     0.089633103495323
 140     0.076793166129989
 141     0.013283761051724
 142    -0.047294119821111
 143    -0.043303355172794
 144    -0.0025188852732226
 145    -0.00010308305060961
 146    0.00034443305992442
 147    -0.0050308212929359
 148    -0.0010273734597509
 149     0.090435974928129
 150     0.018914881043196
 151    -2.0662406083392e-05
 152    0.0086578352222672
 153    -0.00068676285373946
 154    -0.049745073454532
 155    -0.0077730776106915
 156    -0.0046991458003139
 157    -0.0024160631501689
 158    0.00043978507483832
 159    -0.041790210907254
 160    -0.009484704229412
 161    0.0043421825130391
 162    -0.0028164320913737
 163     0.001051657360013
 164    -0.0031432129289711
 165    -0.009623947072086
 166    0.00026863704923441
 167     0.071367699979882
 168    -0.081059292681438
 169    -0.095369592208021
 170    -0.040894110876422
 171     0.043050155338822
 172     0.046164191126449
 173    -0.0041439979703135
 174    -0.00065734059526283
 175    -0.0044757816068719
 176    0.00087906546697883
 177    -0.0026019198172108
 178     0.031139349822488
 179    0.0069827564474351
 180    -0.00038570869121396
 181    0.0055366902618262
 182    0.0010625630453654
 183     -0.10582051688736
 184    -0.025058277332356
 185    -0.0035507426246886
 186    -0.0042546500134462
 187    -0.0089381545516586
 188     0.075715716578569
 189     0.012251762631159
 190    0.0037065065940189
 191    -0.0042878680505115
 192    0.0044255282996868
 193    -8.0246376032914e-05
 194    -0.00092481344056424
 195    0.00059462070733296
 196     -0.12115646983826
 197     0.030936523430751
 198     -0.14302823306889
 199     0.067066618991133
 200    -0.017035638000524
 201     0.078781472520996
 202    -0.0023000602307893
 203    0.0041142707357837
 204    -0.0023432932844855
 205    0.0023835489005827
 206    -0.0062509512014601
 207    -0.068763070664392
 208    -0.015144954105507
 209    0.0080301295349502
 210    0.00097613181737985
 211    -0.0029863011726455
 212    -0.070617711899615
 213    -0.015316176808646
 214    -0.00058394441847106
 215    -0.008480907272649
 216    0.0021252394440717
 217      0.14097828933513
 218     0.030387785672525
 219    -0.010312817331292
 220    0.0079499956176167
 221    -0.0031236044922446
 222    0.0033797016021076
 223    0.0093919427319633
 224    0.0016295069194504
 225     0.053206627494665
 226    -0.077735075527862
 227    -0.095962646811258
 228    -0.026601521157611
 229     0.042310116033909
 230     0.053252527125502
 231    -0.00044560334082709
 232    -0.0041658904541532
 233    0.00096802014211468
 234    0.0044462267224782
 235    -0.0014378564202546
 236    -0.062620376742695
 237    -0.0096658421205712
 238    -0.0016601152756005
 239    -0.0053261875054679
 240    0.0027385096687536
 241    -0.038221494778846
 242    -0.009009094068627
 243    -0.0038131126745486
 244    0.0040279287955401
 245    -0.00066646031908833
 246     0.099423209008857
 247     0.020644692482141
 248    0.0085909246450784
 249    0.0001117445431141
 250    -0.004223472742658
 251    -0.0029330263695671
 252    -0.0090438795642969
 253     0.000261710988924
 254    -0.029251872224433
 255      0.10681874812556
 256     0.072658832109232
 257     0.018694074019459
 258    -0.057157402581927
 259    -0.033919142225965
 260    -0.0051256238928803
 261    2.8142499218742e-06
 262    -0.0025813196301393
 263    0.00084424403229072
 264    -0.0020958987195106
 265    -0.096556081440059
 266    -0.023186241837971
 267    0.0013927187620164
 268     0.001184671611097
 269    0.0094983676808611
 270     0.071899315178921
 271     0.011394821967141
 272    -0.0059420737623748
 273    0.0020121343967736
 274    -0.0024542490800133
 275     0.025620063905391
 276    0.0062884983226911
 277    0.0036998327292211
 278    -0.0016170358753262
 279    -0.0031204761752498
 280    -0.003231580586664
 281    -0.009879973424722
 282    0.00014879099926663
 283    -0.072008530838487
 284     0.079848306768783
 285     0.098126523787311
 286     0.041405569641594
 287    -0.042808124394495
 288     -0.04737265464425
 289    -0.0045124286535392
 290    -0.0007677019235883
 291    -0.0040567466564261
 292    0.00075884605427468
 293    -0.0028270030991541
 294     -0.10588429552831
 295    -0.025110966888961
 296    0.0036593580005669
 297    0.0037642263557926
 298    0.0091721353215957
 299     0.028122176922826
 300    0.0068106580543997
 301    0.0006213667044875
 302    -0.0053977711292426
 303    -0.0014858372032551
 304     0.079017498145855
 305     0.012523904379473
 306    -0.0040145015967371
 307    0.0046381621400393
 308    -0.0041275218357956
 309    0.0029183308304457
 310    0.0080575766564634
 311    0.0013254095645863
 312     0.024413121158227
 313     -0.09118972618581
 314    -0.078099311057424
 315     -0.01213604024201
 316     0.047832831589016
 317     0.043677912023841
 318    -0.0027057471458217
 319    -0.00058230430154695
 320    0.0001934927716397
 321    -0.0048644439673045
 322    -0.001583858152933
 323     0.091851870152472
 324     0.019448717334931
 325    0.00078768173729961
 326    -0.008745114521003
 327    0.00085717856289287
 328    -0.049294968599928
 329    -0.011004153245409
 330    -0.0046951489295731
 331    0.0024593042998837
 332    -0.0018413603724324
 333    -0.043673459182276
 334    -0.0067458122212934
 335    0.0042214000624565
 336    0.0027981074063931
 337      0.00013398917428
 338    -4.4192375100985e-05
 339    -0.0007527070035102
 340    0.00066256583082421
 341       0.1219101689641
 342    -0.030314074499552
 343      0.14303284633322
 344    -0.067310410692087