[Molden Format]
made by pyscf v[2.1.1]
[Atoms] (AU)
Cr   1   24     1.56143912275337    -2.46507591990239    -1.82404491365355
Cr   2   24    -1.56139565905251     2.46513072196000     1.82399011159594
O   3   8     0.00002078698737     0.00002834589187    -0.00002645616574
N   4   7     5.12832174930954    -1.10581670549011    -0.60767356069801
H   5   1     6.65216855026694    -1.66292686427314    -1.66487895135981
H   6   1     5.63710405218294    -1.59213394419468     1.18765885421890
H   7   1     5.20084187906585     0.81566059741989    -0.65509245834172
N   8   7     1.71230729763415    -0.02251608677419    -4.99594076510539
H   9   1     0.29795878723855     1.27247165241550    -4.90823668593820
H   10   1     1.50271021425414    -0.85583806455427    -6.73026148236459
H   11   1     3.34039895052705     0.99863710888315    -5.18656310846864
N   12   7     1.41057094787259    -4.90763575303059     1.34785282752440
H   13   1     1.64193389675534    -6.79355407945465     0.97314659318890
H   14   1    -0.29048681014202    -4.81040367474334     2.24006056107205
H   15   1     2.72468082571676    -4.56691435331926     2.71738081369757
N   16   7    -2.00544350380280    -3.82433513431467    -3.04041437688297
H   17   1    -2.87205678671934    -5.05516478184926    -1.83221042023780
H   18   1    -2.03637832046193    -4.76397121413665    -4.73247136936628
H   19   1    -3.24475802163669    -2.37551046050250    -3.28123540501917
N   20   7     3.37923471211299    -5.33493873459111    -3.94755661599306
H   21   1     4.17102617885350    -4.76109883042731    -5.61685374703210
H   22   1     2.26176595533881    -6.82326057413281    -4.47610923358166
H   23   1     4.85383336053810    -6.19899521806112    -3.03922195969837
N   24   7    -5.12827828560868     1.10587339727385     0.60762064836653
H   25   1    -5.15408816501799    -0.81544705836782     0.54662784797006
H   26   1    -5.69743166898356     1.68113626520945    -1.14337690194197
H   27   1    -6.63528195761783     1.56841410187914     1.73267665553083
N   28   7    -1.71226383393328     0.02257088883181     4.99588785277390
H   29   1    -1.62991523860311     0.86667375415253     6.73575491620870
H   30   1    -0.22416876152653    -1.19157625647512     4.98456461383551
H   31   1    -3.28782110056328    -1.08746368536834     5.11339858210385
N   32   7     2.00548696750367     3.82438993637228     3.04035957482536
H   33   1     2.05186651577887     4.68410571893416     4.77402266739321
H   34   1     2.83712330958063     5.12208376337235     1.87805706574587
H   35   1     3.26582090902109     2.38241174030942     3.19051154350492
N   36   7    -1.41052748417173     4.90769055508820    -1.34790762958202
H   37   1    -1.75003190025884     6.78104976168840    -0.99229329828299
H   38   1    -2.65834387984003     4.49309409198925    -2.75785496783350
H   39   1     0.32278033988471     4.89894112313146    -2.18344058692784
N   40   7    -3.37919124841212     5.33499353664873     3.94750181393545
H   41   1    -2.26357064378777     6.83195331430581     4.45515784003860
H   42   1    -4.15358022727151     4.76963661305810     5.62761006813313
H   43   1    -4.86681766873998     6.18449345978121     3.04686590187224
[GTO]
1 0
 s    6 1.00
          51528.086349  0.0017695545768669
          7737.2103487   0.013556436258096
           1760.374847   0.067162645785071
          496.87706544    0.23295905918518
          161.46520598    0.47040576982722
          55.466352268    0.35733072606876
 s    3 1.00
          107.54732999   -0.10605255446629
          12.408671897    0.62543981484169
          5.0423628826    0.44878820793655
 s    3 1.00
          8.5461640165   -0.21819012081133
          1.3900441221    0.70422525667731
         0.56066602876    0.42488555412558
 s    1 1.00
        0.071483705972                   1
 s    1 1.00
        0.028250687604                   1
 p    5 1.00
          640.48536096  0.0093555063746755
          150.69711194   0.068993338492216
          47.503755296     0.2634118959318
          16.934120165    0.51034501651775
           6.240968059    0.33195512953954
 p    3 1.00
          3.0885463206    0.32917682676976
          1.1791047769    0.55491385190365
         0.43369774432    0.23818412855984
 p    1 1.00
              0.120675                   1
 d    4 1.00
          27.559479426   0.036950140313562
          7.4687020327    0.18821519783039
          2.4345903574    0.44641244239929
         0.78244754808     0.5681617303244
 d    1 1.00
         0.21995774311                   1
 f    1 1.00
                 1.147                   1

2 0
 s    6 1.00
          51528.086349  0.0017695545768669
          7737.2103487   0.013556436258096
           1760.374847   0.067162645785071
          496.87706544    0.23295905918518
          161.46520598    0.47040576982722
          55.466352268    0.35733072606876
 s    3 1.00
          107.54732999   -0.10605255446629
          12.408671897    0.62543981484169
          5.0423628826    0.44878820793655
 s    3 1.00
          8.5461640165   -0.21819012081133
          1.3900441221    0.70422525667731
         0.56066602876    0.42488555412558
 s    1 1.00
        0.071483705972                   1
 s    1 1.00
        0.028250687604                   1
 p    5 1.00
          640.48536096  0.0093555063746755
          150.69711194   0.068993338492216
          47.503755296     0.2634118959318
          16.934120165    0.51034501651775
           6.240968059    0.33195512953954
 p    3 1.00
          3.0885463206    0.32917682676976
          1.1791047769    0.55491385190365
         0.43369774432    0.23818412855984
 p    1 1.00
              0.120675                   1
 d    4 1.00
          27.559479426   0.036950140313562
          7.4687020327    0.18821519783039
          2.4345903574    0.44641244239929
         0.78244754808     0.5681617303244
 d    1 1.00
         0.21995774311                   1
 f    1 1.00
                 1.147                   1

3 0
 s    5 1.00
          2266.1767785  -0.0053893503921743
          340.87010191   -0.04023472138896
          77.363135167   -0.18008184205526
           21.47964494   -0.46828857657651
          6.6589433124   -0.44692617160187
 s    1 1.00
         0.80975975668                   1
 s    1 1.00
         0.25530772234                   1
 p    3 1.00
          17.721504317   0.062630248763161
           3.863550544    0.33331138482352
          1.0480920883    0.74148638308122
 p    1 1.00
         0.27641544411                   1
 d    1 1.00
                   1.2                   1

4 0
 s    5 1.00
          1712.8415853  -0.0054477995804909
          257.64812677  -0.040627174632423
          58.458245853   -0.18111962250584
          16.198367905   -0.46843975563173
          5.0052600809   -0.44616846289231
 s    1 1.00
         0.58731856571                   1
 s    1 1.00
         0.18764592253                   1
 p    3 1.00
          13.571470233  -0.058848116969522
          2.9257372874   -0.32024624762471
         0.79927750754   -0.75328226520436
 p    1 1.00
         0.21954348034                   1
 d    1 1.00
                     1                   1

5 0
 s    3 1.00
             13.010701   0.033485484812989
             1.9622572    0.23472187088125
            0.44453796    0.81377028525955
 s    1 1.00
            0.12194962                   1
 p    1 1.00
                   0.8                   1

6 0
 s    3 1.00
             13.010701   0.033485484812989
             1.9622572    0.23472187088125
            0.44453796    0.81377028525955
 s    1 1.00
            0.12194962                   1
 p    1 1.00
                   0.8                   1

7 0
 s    3 1.00
             13.010701   0.033485484812989
             1.9622572    0.23472187088125
            0.44453796    0.81377028525955
 s    1 1.00
            0.12194962                   1
 p    1 1.00
                   0.8                   1

8 0
 s    5 1.00
          1712.8415853  -0.0054477995804909
          257.64812677  -0.040627174632423
          58.458245853   -0.18111962250584
          16.198367905   -0.46843975563173
          5.0052600809   -0.44616846289231
 s    1 1.00
         0.58731856571                   1
 s    1 1.00
         0.18764592253                   1
 p    3 1.00
          13.571470233  -0.058848116969522
          2.9257372874   -0.32024624762471
         0.79927750754   -0.75328226520436
 p    1 1.00
         0.21954348034                   1
 d    1 1.00
                     1                   1

9 0
 s    3 1.00
             13.010701   0.033485484812989
             1.9622572    0.23472187088125
            0.44453796    0.81377028525955
 s    1 1.00
            0.12194962                   1
 p    1 1.00
                   0.8                   1

10 0
 s    3 1.00
             13.010701   0.033485484812989
             1.9622572    0.23472187088125
            0.44453796    0.81377028525955
 s    1 1.00
            0.12194962                   1
 p    1 1.00
                   0.8                   1

11 0
 s    3 1.00
             13.010701   0.033485484812989
             1.9622572    0.23472187088125
            0.44453796    0.81377028525955
 s    1 1.00
            0.12194962                   1
 p    1 1.00
                   0.8                   1

12 0
 s    5 1.00
          1712.8415853  -0.0054477995804909
          257.64812677  -0.040627174632423
          58.458245853   -0.18111962250584
          16.198367905   -0.46843975563173
          5.0052600809   -0.44616846289231
 s    1 1.00
         0.58731856571                   1
 s    1 1.00
         0.18764592253                   1
 p    3 1.00
          13.571470233  -0.058848116969522
          2.9257372874   -0.32024624762471
         0.79927750754   -0.75328226520436
 p    1 1.00
         0.21954348034                   1
 d    1 1.00
                     1                   1

13 0
 s    3 1.00
             13.010701   0.033485484812989
             1.9622572    0.23472187088125
            0.44453796    0.81377028525955
 s    1 1.00
            0.12194962                   1
 p    1 1.00
                   0.8                   1

14 0
 s    3 1.00
             13.010701   0.033485484812989
             1.9622572    0.23472187088125
            0.44453796    0.81377028525955
 s    1 1.00
            0.12194962                   1
 p    1 1.00
                   0.8                   1

15 0
 s    3 1.00
             13.010701   0.033485484812989
             1.9622572    0.23472187088125
            0.44453796    0.81377028525955
 s    1 1.00
            0.12194962                   1
 p    1 1.00
                   0.8                   1

16 0
 s    5 1.00
          1712.8415853  -0.0054477995804909
          257.64812677  -0.040627174632423
          58.458245853   -0.18111962250584
          16.198367905   -0.46843975563173
          5.0052600809   -0.44616846289231
 s    1 1.00
         0.58731856571                   1
 s    1 1.00
         0.18764592253                   1
 p    3 1.00
          13.571470233  -0.058848116969522
          2.9257372874   -0.32024624762471
         0.79927750754   -0.75328226520436
 p    1 1.00
         0.21954348034                   1
 d    1 1.00
                     1                   1

17 0
 s    3 1.00
             13.010701   0.033485484812989
             1.9622572    0.23472187088125
            0.44453796    0.81377028525955
 s    1 1.00
            0.12194962                   1
 p    1 1.00
                   0.8                   1

18 0
 s    3 1.00
             13.010701   0.033485484812989
             1.9622572    0.23472187088125
            0.44453796    0.81377028525955
 s    1 1.00
            0.12194962                   1
 p    1 1.00
                   0.8                   1

19 0
 s    3 1.00
             13.010701   0.033485484812989
             1.9622572    0.23472187088125
            0.44453796    0.81377028525955
 s    1 1.00
            0.12194962                   1
 p    1 1.00
                   0.8                   1

20 0
 s    5 1.00
          1712.8415853  -0.0054477995804909
          257.64812677  -0.040627174632423
          58.458245853   -0.18111962250584
          16.198367905   -0.46843975563173
          5.0052600809   -0.44616846289231
 s    1 1.00
         0.58731856571                   1
 s    1 1.00
         0.18764592253                   1
 p    3 1.00
          13.571470233  -0.058848116969522
          2.9257372874   -0.32024624762471
         0.79927750754   -0.75328226520436
 p    1 1.00
         0.21954348034                   1
 d    1 1.00
                     1                   1

21 0
 s    3 1.00
             13.010701   0.033485484812989
             1.9622572    0.23472187088125
            0.44453796    0.81377028525955
 s    1 1.00
            0.12194962                   1
 p    1 1.00
                   0.8                   1

22 0
 s    3 1.00
             13.010701   0.033485484812989
             1.9622572    0.23472187088125
            0.44453796    0.81377028525955
 s    1 1.00
            0.12194962                   1
 p    1 1.00
                   0.8                   1

23 0
 s    3 1.00
             13.010701   0.033485484812989
             1.9622572    0.23472187088125
            0.44453796    0.81377028525955
 s    1 1.00
            0.12194962                   1
 p    1 1.00
                   0.8                   1

24 0
 s    5 1.00
          1712.8415853  -0.0054477995804909
          257.64812677  -0.040627174632423
          58.458245853   -0.18111962250584
          16.198367905   -0.46843975563173
          5.0052600809   -0.44616846289231
 s    1 1.00
         0.58731856571                   1
 s    1 1.00
         0.18764592253                   1
 p    3 1.00
          13.571470233  -0.058848116969522
          2.9257372874   -0.32024624762471
         0.79927750754   -0.75328226520436
 p    1 1.00
         0.21954348034                   1
 d    1 1.00
                     1                   1

25 0
 s    3 1.00
             13.010701   0.033485484812989
             1.9622572    0.23472187088125
            0.44453796    0.81377028525955
 s    1 1.00
            0.12194962                   1
 p    1 1.00
                   0.8                   1

26 0
 s    3 1.00
             13.010701   0.033485484812989
             1.9622572    0.23472187088125
            0.44453796    0.81377028525955
 s    1 1.00
            0.12194962                   1
 p    1 1.00
                   0.8                   1

27 0
 s    3 1.00
             13.010701   0.033485484812989
             1.9622572    0.23472187088125
            0.44453796    0.81377028525955
 s    1 1.00
            0.12194962                   1
 p    1 1.00
                   0.8                   1

28 0
 s    5 1.00
          1712.8415853  -0.0054477995804909
          257.64812677  -0.040627174632423
          58.458245853   -0.18111962250584
          16.198367905   -0.46843975563173
          5.0052600809   -0.44616846289231
 s    1 1.00
         0.58731856571                   1
 s    1 1.00
         0.18764592253                   1
 p    3 1.00
          13.571470233  -0.058848116969522
          2.9257372874   -0.32024624762471
         0.79927750754   -0.75328226520436
 p    1 1.00
         0.21954348034                   1
 d    1 1.00
                     1                   1

29 0
 s    3 1.00
             13.010701   0.033485484812989
             1.9622572    0.23472187088125
            0.44453796    0.81377028525955
 s    1 1.00
            0.12194962                   1
 p    1 1.00
                   0.8                   1

30 0
 s    3 1.00
             13.010701   0.033485484812989
             1.9622572    0.23472187088125
            0.44453796    0.81377028525955
 s    1 1.00
            0.12194962                   1
 p    1 1.00
                   0.8                   1

31 0
 s    3 1.00
             13.010701   0.033485484812989
             1.9622572    0.23472187088125
            0.44453796    0.81377028525955
 s    1 1.00
            0.12194962                   1
 p    1 1.00
                   0.8                   1

32 0
 s    5 1.00
          1712.8415853  -0.0054477995804909
          257.64812677  -0.040627174632423
          58.458245853   -0.18111962250584
          16.198367905   -0.46843975563173
          5.0052600809   -0.44616846289231
 s    1 1.00
         0.58731856571                   1
 s    1 1.00
         0.18764592253                   1
 p    3 1.00
          13.571470233  -0.058848116969522
          2.9257372874   -0.32024624762471
         0.79927750754   -0.75328226520436
 p    1 1.00
         0.21954348034                   1
 d    1 1.00
                     1                   1

33 0
 s    3 1.00
             13.010701   0.033485484812989
             1.9622572    0.23472187088125
            0.44453796    0.81377028525955
 s    1 1.00
            0.12194962                   1
 p    1 1.00
                   0.8                   1

34 0
 s    3 1.00
             13.010701   0.033485484812989
             1.9622572    0.23472187088125
            0.44453796    0.81377028525955
 s    1 1.00
            0.12194962                   1
 p    1 1.00
                   0.8                   1

35 0
 s    3 1.00
             13.010701   0.033485484812989
             1.9622572    0.23472187088125
            0.44453796    0.81377028525955
 s    1 1.00
            0.12194962                   1
 p    1 1.00
                   0.8                   1

36 0
 s    5 1.00
          1712.8415853  -0.0054477995804909
          257.64812677  -0.040627174632423
          58.458245853   -0.18111962250584
          16.198367905   -0.46843975563173
          5.0052600809   -0.44616846289231
 s    1 1.00
         0.58731856571                   1
 s    1 1.00
         0.18764592253                   1
 p    3 1.00
          13.571470233  -0.058848116969522
          2.9257372874   -0.32024624762471
         0.79927750754   -0.75328226520436
 p    1 1.00
         0.21954348034                   1
 d    1 1.00
                     1                   1

37 0
 s    3 1.00
             13.010701   0.033485484812989
             1.9622572    0.23472187088125
            0.44453796    0.81377028525955
 s    1 1.00
            0.12194962                   1
 p    1 1.00
                   0.8                   1

38 0
 s    3 1.00
             13.010701   0.033485484812989
             1.9622572    0.23472187088125
            0.44453796    0.81377028525955
 s    1 1.00
            0.12194962                   1
 p    1 1.00
                   0.8                   1

39 0
 s    3 1.00
             13.010701   0.033485484812989
             1.9622572    0.23472187088125
            0.44453796    0.81377028525955
 s    1 1.00
            0.12194962                   1
 p    1 1.00
                   0.8                   1

40 0
 s    5 1.00
          1712.8415853  -0.0054477995804909
          257.64812677  -0.040627174632423
          58.458245853   -0.18111962250584
          16.198367905   -0.46843975563173
          5.0052600809   -0.44616846289231
 s    1 1.00
         0.58731856571                   1
 s    1 1.00
         0.18764592253                   1
 p    3 1.00
          13.571470233  -0.058848116969522
          2.9257372874   -0.32024624762471
         0.79927750754   -0.75328226520436
 p    1 1.00
         0.21954348034                   1
 d    1 1.00
                     1                   1

41 0
 s    3 1.00
             13.010701   0.033485484812989
             1.9622572    0.23472187088125
            0.44453796    0.81377028525955
 s    1 1.00
            0.12194962                   1
 p    1 1.00
                   0.8                   1

42 0
 s    3 1.00
             13.010701   0.033485484812989
             1.9622572    0.23472187088125
            0.44453796    0.81377028525955
 s    1 1.00
            0.12194962                   1
 p    1 1.00
                   0.8                   1

43 0
 s    3 1.00
             13.010701   0.033485484812989
             1.9622572    0.23472187088125
            0.44453796    0.81377028525955
 s    1 1.00
            0.12194962                   1
 p    1 1.00
                   0.8                   1

[5d]
[7f]
[9g]

[MO]
 Sym= A
 Ene=               0
 Spin= Alpha
 Occup=    1.00000
   1    0.0003583674858965
   2    -1.1057396335741e-06
   3    0.0072742789115929
   4    0.0097977707307577
   5    0.00049777816099764
   6    -0.00049697510487099
   7    0.00079330080640091
   8    0.00059559143889478
   9    0.0025655043657361
  10    -0.0040754036272795
  11    -0.0030405956801081
  12    -0.00069479044716932
  13    0.0010478476968613
  14    0.00068939959057108
  15    -0.00070538416607632
  16     -0.00407646000998
  17    0.0064398959738285
  18    -0.0026023861468783
  19    -0.0054355538229265
  20    -0.00054545216537861
  21    -0.0030324448362802
  22    0.0048301607099493
  23    -0.0019281992613515
  24    -0.0041003384042712
  25    0.00022701323876742
  26    5.8663245607939e-05
  27    -8.9108236180903e-05
  28    0.00016768759884087
  29    0.00035463001008428
  30    -0.00025835836320956
  31    -3.453013565262e-05
  32    -0.0027331421804053
  33    0.0032503935079909
  34    -0.052201777314922
  35    -0.0091544006237535
  36    0.0030557797924208
  37    -0.0001640075592751
  38    0.00018089353443394
  39    7.3392201993639e-06
  40    0.0011740067389484
  41    -0.0016008669261084
  42    -0.00077838753751665
  43    0.0067986599415572
  44    -0.011658576727461
  45    -0.010035434190375
  46     0.012336275608105
  47     0.065500111892391
  48     -0.10350386469124
  49     0.041822356464877
  50     0.088310508843649
  51     0.010836829853875
  52     0.056257022091635
  53    -0.088941738357503
  54     0.035996782293304
  55     0.076269507290734
  56    0.00057058177101496
  57    0.00012511045045961
  58    -0.00024154813294279
  59    0.00041104634073939
  60    0.0009222911045339
  61    -0.00065523057443701
  62    -6.5912142882008e-05
  63    -0.084709240132784
  64     -0.16978572627309
  65     -0.10039685850432
  66     0.030368696383194
  67    -0.047651275927383
  68    -0.034825303594412
  69    0.0088476658489032
  70    -0.013417350578851
  71    -0.0090119525256421
  72    0.00034612239979666
  73    0.0018144056342199
  74    -0.002865378027417
  75    0.0011604623114821
  76    0.0024638680301025
  77    -0.00085955698604473
  78    -0.00015571331589438
  79    -0.0007003993402161
  80    -0.004312519794688
  81    0.0031556370614676
  82    0.0019187511399957
  83    0.0030528099794757
  84    -0.0016609136843965
  85    -0.00087542854534947
  86    3.2483022682505e-05
  87    -0.00014371030321307
  88    5.0514632722485e-05
  89    0.00021735469427104
  90    -0.00010347792171746
  91    0.0042592735150961
  92    0.00049018236774831
  93    -0.00027643513154929
  94    2.9726727172115e-05
  95    0.00020052851232439
  96    -9.7333205582987e-05
  97    -0.00093025941089996
  98    0.00015482312924042
  99    -0.00011065729437434
 100    -1.4797515130223e-05
 101    -0.0027253783029611
 102    -0.0012858746553956
 103    0.00012554096086584
 104    0.00017899799206924
 105    -7.9848750592932e-05
 106    -0.00096579474965961
 107    -0.00033071586070579
 108    -0.00089578175687947
 109    -0.0024877590923434
 110    0.0018256295392322
 111    0.0040441349940725
 112    0.0015297127592588
 113    -0.00056609482328986
 114    -0.0028856478657476
 115    0.00015593101606249
 116    1.0093809823207e-06
 117    8.4503292978855e-05
 118    -5.3833786692185e-06
 119    0.00015753858259052
 120    -0.0030582229650423
 121    -0.0014150687616747
 122    -0.00016982264178202
 123    0.0001475293975868
 124    -7.3447019444198e-05
 125    0.0032257211416857
 126    0.0001902371779085
 127    0.00012821679642573
 128    7.1199806071291e-05
 129    0.00021544516270927
 130    0.00097097229847421
 131    -0.00058427392625237
 132    1.0209228386345e-05
 133    -0.0001093657673139
 134    -0.00013531671663093
 135    -0.0008515991958153
 136    -0.00011673478288258
 137    -0.00065352006536331
 138    -0.002555709139868
 139    0.0050725579092173
 140    0.0010250008219264
 141    0.0014970657514358
 142    -0.0032885774257007
 143    -0.00011436124429142
 144    -8.5352548680441e-05
 145    8.6821878103115e-05
 146    4.0887355106949e-05
 147    -0.00025771733247638
 148    -5.1661152705101e-05
 149    0.0043431420845108
 150    0.00050716429386809
 151      2.5429189524e-05
 152    0.00034752554765908
 153    4.5587201366996e-05
 154    -0.0027621874789782
 155    -0.0012945681729264
 156    -0.00017912160120109
 157    -0.00013369953992769
 158    8.094548472419e-05
 159    -0.00010341914188438
 160    -0.00092079047425289
 161    0.00011173078804772
 162    -0.0001577337699452
 163    5.2613572167617e-06
 164    -0.00092228072506769
 165    -0.0002621082319777
 166    -0.00084564443480984
 167    -6.8806806638718e-05
 168    0.0042010150544683
 169    0.0027610111967682
 170    -0.00061298361032916
 171    -0.002789019310962
 172    -0.0017619639534576
 173    0.0001540248941964
 174    -2.0936776950306e-05
 175    0.00013074415047703
 176    -3.981027919845e-05
 177    0.00012782978880172
 178    0.0004943527020303
 179    -0.00083846413940836
 180    2.3499665803968e-06
 181    -0.00012242396757286
 182    -0.00010554893304248
 183    0.0034796604690532
 184    0.00027322755362088
 185    4.3015060514826e-05
 186    6.1261553033498e-05
 187    0.00026175476433684
 188    -0.0027016456838558
 189    -0.001271585262786
 190    -0.00015445500208242
 191    9.2990737110353e-05
 192    -0.00010954153268156
 193    0.0040649745904105
 194     0.017182740639274
 195      0.01007570345467
 196    0.0049806813926601
 197    -0.0082740247452336
 198    -0.0068511271692979
 199    -0.003931561553985
 200    0.0064069361722841
 201    0.0051796049522857
 202    -2.5349673298191e-05
 203    -6.1543665624849e-05
 204    0.00012542442195795
 205    -4.5086693541069e-05
 206    -0.00013479921432588
 207     0.001502742107916
 208    -0.00087913676909208
 209    -0.00023935556221058
 210    9.0672363190928e-05
 211    0.00042512124116626
 212    0.0016190392350533
 213    -0.00087602987364177
 214    7.4948851544762e-05
 215    0.00043603731385552
 216     0.000242475784224
 217     0.002474208236315
 218    -0.00078542142852139
 219    -0.00043682533854792
 220    0.00038165492060748
 221    -4.0489580334854e-05
 222     0.014553199299455
 223      0.13352446919873
 224     0.075516003999233
 225    -0.079311039225211
 226    -0.029592778354409
 227    -0.020245334499822
 228     0.058614000673824
 229     0.024997683101568
 230     0.019108295081288
 231    0.00020885795314602
 232    0.00023946562929174
 233    -0.00067580047204607
 234    0.0001658954109009
 235    -3.3145451242267e-05
 236     0.018724918744346
 237    -0.0047073101494412
 238    0.0027384212886666
 239    0.0043924611831484
 240    0.0012564657704697
 241     0.020555154288284
 242    -0.0035017746695134
 243    0.0041500052891161
 244    0.00044124414413052
 245    0.0033708763847888
 246    0.0099241853551737
 247    -0.0068206832757284
 248    0.0036460518632605
 249    -0.00019684835917644
 250    -0.00061143555719919
 251     0.014586966100375
 252      0.13377953732352
 253     0.076220825201697
 254    -0.00063380103983555
 255    -0.050102155086429
 256     0.071685269415495
 257    0.00032059120268079
 258     0.042310539011687
 259    -0.053334474969289
 260    6.2787753131817e-05
 261    2.3345169910299e-05
 262    -0.00016814324391785
 263    0.00046514095920597
 264    0.0005808718408775
 265     0.010768898411726
 266    -0.005896040988357
 267    0.00044279635022784
 268    0.00012696613927889
 269    -0.0038572346625268
 270     0.018662546830892
 271    -0.0050439451829521
 272    -0.002537764896816
 273    0.0041589400327175
 274    -0.002173676095892
 275     0.020012291791465
 276    -0.0034808747131435
 277    0.0023834447796864
 278    0.0034968036634238
 279    -0.0030613440052232
 280     0.014542983086724
 281      0.13335602838805
 282     0.075977184742176
 283     0.076073475610544
 284     0.029004729534402
 285     0.031208358583685
 286    -0.061005680546617
 287    -0.020751515104327
 288     -0.02079546383064
 289    0.00014026710806127
 290    0.00014424407068828
 291    -0.0004490816302093
 292    -0.00028064865962884
 293    0.00050601378179481
 294     0.010474911258798
 295    -0.0060483885152033
 296    -0.0017639470439945
 297    -0.0021720542019042
 298    -0.0026071559195805
 299     0.020044977866872
 300    -0.003562129474195
 301    -0.0041850857930744
 302    -0.0031161288603167
 303    0.0003841870211942
 304     0.018760456841493
 305    -0.0048880615601802
 306    -0.0049845256246159
 307    0.0016258309383516
 308    -0.00097112695348717
 309     0.014683869794485
 310      0.13419033429799
 311     0.075820481024155
 312    0.0041537924256594
 313     0.058510478018201
 314    -0.064859269228669
 315    -0.0043735214222083
 316    -0.040601190664675
 317      0.05272236328349
 318    -0.00018361341937976
 319    0.00054316333997023
 320    -0.00021470209363997
 321    0.00032306612763043
 322    0.00028407374329758
 323    0.0090205601885774
 324    -0.0071313708031874
 325    0.00056843412674445
 326    -0.0033879505674756
 327    0.0010566429729232
 328     0.021078762467862
 329    -0.0034557068192943
 330    0.0015933844629418
 331    -0.0017324194546038
 332    0.0049258958555996
 333     0.019311053284272
 334    -0.0044393462107863
 335    -0.0029427717677172
 336    -0.001824517215201
 337    0.0041002334758213
 338    -0.053694627243764
 339     -0.37188112988865
 340     -0.22051834936685
 341     0.099515772989894