[Molden Format]
made by pyscf v[2.1.1]
[Atoms] (AU)
Cr   1   24     1.56143912275337    -2.46507591990239    -1.82404491365355
Cr   2   24    -1.56139565905251     2.46513072196000     1.82399011159594
O   3   8     0.00002078698737     0.00002834589187    -0.00002645616574
N   4   7     5.12832174930954    -1.10581670549011    -0.60767356069801
H   5   1     6.65216855026694    -1.66292686427314    -1.66487895135981
H   6   1     5.63710405218294    -1.59213394419468     1.18765885421890
H   7   1     5.20084187906585     0.81566059741989    -0.65509245834172
N   8   7     1.71230729763415    -0.02251608677419    -4.99594076510539
H   9   1     0.29795878723855     1.27247165241550    -4.90823668593820
H   10   1     1.50271021425414    -0.85583806455427    -6.73026148236459
H   11   1     3.34039895052705     0.99863710888315    -5.18656310846864
N   12   7     1.41057094787259    -4.90763575303059     1.34785282752440
H   13   1     1.64193389675534    -6.79355407945465     0.97314659318890
H   14   1    -0.29048681014202    -4.81040367474334     2.24006056107205
H   15   1     2.72468082571676    -4.56691435331926     2.71738081369757
N   16   7    -2.00544350380280    -3.82433513431467    -3.04041437688297
H   17   1    -2.87205678671934    -5.05516478184926    -1.83221042023780
H   18   1    -2.03637832046193    -4.76397121413665    -4.73247136936628
H   19   1    -3.24475802163669    -2.37551046050250    -3.28123540501917
N   20   7     3.37923471211299    -5.33493873459111    -3.94755661599306
H   21   1     4.17102617885350    -4.76109883042731    -5.61685374703210
H   22   1     2.26176595533881    -6.82326057413281    -4.47610923358166
H   23   1     4.85383336053810    -6.19899521806112    -3.03922195969837
N   24   7    -5.12827828560868     1.10587339727385     0.60762064836653
H   25   1    -5.15408816501799    -0.81544705836782     0.54662784797006
H   26   1    -5.69743166898356     1.68113626520945    -1.14337690194197
H   27   1    -6.63528195761783     1.56841410187914     1.73267665553083
N   28   7    -1.71226383393328     0.02257088883181     4.99588785277390
H   29   1    -1.62991523860311     0.86667375415253     6.73575491620870
H   30   1    -0.22416876152653    -1.19157625647512     4.98456461383551
H   31   1    -3.28782110056328    -1.08746368536834     5.11339858210385
N   32   7     2.00548696750367     3.82438993637228     3.04035957482536
H   33   1     2.05186651577887     4.68410571893416     4.77402266739321
H   34   1     2.83712330958063     5.12208376337235     1.87805706574587
H   35   1     3.26582090902109     2.38241174030942     3.19051154350492
N   36   7    -1.41052748417173     4.90769055508820    -1.34790762958202
H   37   1    -1.75003190025884     6.78104976168840    -0.99229329828299
H   38   1    -2.65834387984003     4.49309409198925    -2.75785496783350
H   39   1     0.32278033988471     4.89894112313146    -2.18344058692784
N   40   7    -3.37919124841212     5.33499353664873     3.94750181393545
H   41   1    -2.26357064378777     6.83195331430581     4.45515784003860
H   42   1    -4.15358022727151     4.76963661305810     5.62761006813313
H   43   1    -4.86681766873998     6.18449345978121     3.04686590187224
[GTO]
1 0
 s    6 1.00
          51528.086349  0.0017695545768669
          7737.2103487   0.013556436258096
           1760.374847   0.067162645785071
          496.87706544    0.23295905918518
          161.46520598    0.47040576982722
          55.466352268    0.35733072606876
 s    3 1.00
          107.54732999   -0.10605255446629
          12.408671897    0.62543981484169
          5.0423628826    0.44878820793655
 s    3 1.00
          8.5461640165   -0.21819012081133
          1.3900441221    0.70422525667731
         0.56066602876    0.42488555412558
 s    1 1.00
        0.071483705972                   1
 s    1 1.00
        0.028250687604                   1
 p    5 1.00
          640.48536096  0.0093555063746755
          150.69711194   0.068993338492216
          47.503755296     0.2634118959318
          16.934120165    0.51034501651775
           6.240968059    0.33195512953954
 p    3 1.00
          3.0885463206    0.32917682676976
          1.1791047769    0.55491385190365
         0.43369774432    0.23818412855984
 p    1 1.00
              0.120675                   1
 d    4 1.00
          27.559479426   0.036950140313562
          7.4687020327    0.18821519783039
          2.4345903574    0.44641244239929
         0.78244754808     0.5681617303244
 d    1 1.00
         0.21995774311                   1
 f    1 1.00
                 1.147                   1

2 0
 s    6 1.00
          51528.086349  0.0017695545768669
          7737.2103487   0.013556436258096
           1760.374847   0.067162645785071
          496.87706544    0.23295905918518
          161.46520598    0.47040576982722
          55.466352268    0.35733072606876
 s    3 1.00
          107.54732999   -0.10605255446629
          12.408671897    0.62543981484169
          5.0423628826    0.44878820793655
 s    3 1.00
          8.5461640165   -0.21819012081133
          1.3900441221    0.70422525667731
         0.56066602876    0.42488555412558
 s    1 1.00
        0.071483705972                   1
 s    1 1.00
        0.028250687604                   1
 p    5 1.00
          640.48536096  0.0093555063746755
          150.69711194   0.068993338492216
          47.503755296     0.2634118959318
          16.934120165    0.51034501651775
           6.240968059    0.33195512953954
 p    3 1.00
          3.0885463206    0.32917682676976
          1.1791047769    0.55491385190365
         0.43369774432    0.23818412855984
 p    1 1.00
              0.120675                   1
 d    4 1.00
          27.559479426   0.036950140313562
          7.4687020327    0.18821519783039
          2.4345903574    0.44641244239929
         0.78244754808     0.5681617303244
 d    1 1.00
         0.21995774311                   1
 f    1 1.00
                 1.147                   1

3 0
 s    5 1.00
          2266.1767785  -0.0053893503921743
          340.87010191   -0.04023472138896
          77.363135167   -0.18008184205526
           21.47964494   -0.46828857657651
          6.6589433124   -0.44692617160187
 s    1 1.00
         0.80975975668                   1
 s    1 1.00
         0.25530772234                   1
 p    3 1.00
          17.721504317   0.062630248763161
           3.863550544    0.33331138482352
          1.0480920883    0.74148638308122
 p    1 1.00
         0.27641544411                   1
 d    1 1.00
                   1.2                   1

4 0
 s    5 1.00
          1712.8415853  -0.0054477995804909
          257.64812677  -0.040627174632423
          58.458245853   -0.18111962250584
          16.198367905   -0.46843975563173
          5.0052600809   -0.44616846289231
 s    1 1.00
         0.58731856571                   1
 s    1 1.00
         0.18764592253                   1
 p    3 1.00
          13.571470233  -0.058848116969522
          2.9257372874   -0.32024624762471
         0.79927750754   -0.75328226520436
 p    1 1.00
         0.21954348034                   1
 d    1 1.00
                     1                   1

5 0
 s    3 1.00
             13.010701   0.033485484812989
             1.9622572    0.23472187088125
            0.44453796    0.81377028525955
 s    1 1.00
            0.12194962                   1
 p    1 1.00
                   0.8                   1

6 0
 s    3 1.00
             13.010701   0.033485484812989
             1.9622572    0.23472187088125
            0.44453796    0.81377028525955
 s    1 1.00
            0.12194962                   1
 p    1 1.00
                   0.8                   1

7 0
 s    3 1.00
             13.010701   0.033485484812989
             1.9622572    0.23472187088125
            0.44453796    0.81377028525955
 s    1 1.00
            0.12194962                   1
 p    1 1.00
                   0.8                   1

8 0
 s    5 1.00
          1712.8415853  -0.0054477995804909
          257.64812677  -0.040627174632423
          58.458245853   -0.18111962250584
          16.198367905   -0.46843975563173
          5.0052600809   -0.44616846289231
 s    1 1.00
         0.58731856571                   1
 s    1 1.00
         0.18764592253                   1
 p    3 1.00
          13.571470233  -0.058848116969522
          2.9257372874   -0.32024624762471
         0.79927750754   -0.75328226520436
 p    1 1.00
         0.21954348034                   1
 d    1 1.00
                     1                   1

9 0
 s    3 1.00
             13.010701   0.033485484812989
             1.9622572    0.23472187088125
            0.44453796    0.81377028525955
 s    1 1.00
            0.12194962                   1
 p    1 1.00
                   0.8                   1

10 0
 s    3 1.00
             13.010701   0.033485484812989
             1.9622572    0.23472187088125
            0.44453796    0.81377028525955
 s    1 1.00
            0.12194962                   1
 p    1 1.00
                   0.8                   1

11 0
 s    3 1.00
             13.010701   0.033485484812989
             1.9622572    0.23472187088125
            0.44453796    0.81377028525955
 s    1 1.00
            0.12194962                   1
 p    1 1.00
                   0.8                   1

12 0
 s    5 1.00
          1712.8415853  -0.0054477995804909
          257.64812677  -0.040627174632423
          58.458245853   -0.18111962250584
          16.198367905   -0.46843975563173
          5.0052600809   -0.44616846289231
 s    1 1.00
         0.58731856571                   1
 s    1 1.00
         0.18764592253                   1
 p    3 1.00
          13.571470233  -0.058848116969522
          2.9257372874   -0.32024624762471
         0.79927750754   -0.75328226520436
 p    1 1.00
         0.21954348034                   1
 d    1 1.00
                     1                   1

13 0
 s    3 1.00
             13.010701   0.033485484812989
             1.9622572    0.23472187088125
            0.44453796    0.81377028525955
 s    1 1.00
            0.12194962                   1
 p    1 1.00
                   0.8                   1

14 0
 s    3 1.00
             13.010701   0.033485484812989
             1.9622572    0.23472187088125
            0.44453796    0.81377028525955
 s    1 1.00
            0.12194962                   1
 p    1 1.00
                   0.8                   1

15 0
 s    3 1.00
             13.010701   0.033485484812989
             1.9622572    0.23472187088125
            0.44453796    0.81377028525955
 s    1 1.00
            0.12194962                   1
 p    1 1.00
                   0.8                   1

16 0
 s    5 1.00
          1712.8415853  -0.0054477995804909
          257.64812677  -0.040627174632423
          58.458245853   -0.18111962250584
          16.198367905   -0.46843975563173
          5.0052600809   -0.44616846289231
 s    1 1.00
         0.58731856571                   1
 s    1 1.00
         0.18764592253                   1
 p    3 1.00
          13.571470233  -0.058848116969522
          2.9257372874   -0.32024624762471
         0.79927750754   -0.75328226520436
 p    1 1.00
         0.21954348034                   1
 d    1 1.00
                     1                   1

17 0
 s    3 1.00
             13.010701   0.033485484812989
             1.9622572    0.23472187088125
            0.44453796    0.81377028525955
 s    1 1.00
            0.12194962                   1
 p    1 1.00
                   0.8                   1

18 0
 s    3 1.00
             13.010701   0.033485484812989
             1.9622572    0.23472187088125
            0.44453796    0.81377028525955
 s    1 1.00
            0.12194962                   1
 p    1 1.00
                   0.8                   1

19 0
 s    3 1.00
             13.010701   0.033485484812989
             1.9622572    0.23472187088125
            0.44453796    0.81377028525955
 s    1 1.00
            0.12194962                   1
 p    1 1.00
                   0.8                   1

20 0
 s    5 1.00
          1712.8415853  -0.0054477995804909
          257.64812677  -0.040627174632423
          58.458245853   -0.18111962250584
          16.198367905   -0.46843975563173
          5.0052600809   -0.44616846289231
 s    1 1.00
         0.58731856571                   1
 s    1 1.00
         0.18764592253                   1
 p    3 1.00
          13.571470233  -0.058848116969522
          2.9257372874   -0.32024624762471
         0.79927750754   -0.75328226520436
 p    1 1.00
         0.21954348034                   1
 d    1 1.00
                     1                   1

21 0
 s    3 1.00
             13.010701   0.033485484812989
             1.9622572    0.23472187088125
            0.44453796    0.81377028525955
 s    1 1.00
            0.12194962                   1
 p    1 1.00
                   0.8                   1

22 0
 s    3 1.00
             13.010701   0.033485484812989
             1.9622572    0.23472187088125
            0.44453796    0.81377028525955
 s    1 1.00
            0.12194962                   1
 p    1 1.00
                   0.8                   1

23 0
 s    3 1.00
             13.010701   0.033485484812989
             1.9622572    0.23472187088125
            0.44453796    0.81377028525955
 s    1 1.00
            0.12194962                   1
 p    1 1.00
                   0.8                   1

24 0
 s    5 1.00
          1712.8415853  -0.0054477995804909
          257.64812677  -0.040627174632423
          58.458245853   -0.18111962250584
          16.198367905   -0.46843975563173
          5.0052600809   -0.44616846289231
 s    1 1.00
         0.58731856571                   1
 s    1 1.00
         0.18764592253                   1
 p    3 1.00
          13.571470233  -0.058848116969522
          2.9257372874   -0.32024624762471
         0.79927750754   -0.75328226520436
 p    1 1.00
         0.21954348034                   1
 d    1 1.00
                     1                   1

25 0
 s    3 1.00
             13.010701   0.033485484812989
             1.9622572    0.23472187088125
            0.44453796    0.81377028525955
 s    1 1.00
            0.12194962                   1
 p    1 1.00
                   0.8                   1

26 0
 s    3 1.00
             13.010701   0.033485484812989
             1.9622572    0.23472187088125
            0.44453796    0.81377028525955
 s    1 1.00
            0.12194962                   1
 p    1 1.00
                   0.8                   1

27 0
 s    3 1.00
             13.010701   0.033485484812989
             1.9622572    0.23472187088125
            0.44453796    0.81377028525955
 s    1 1.00
            0.12194962                   1
 p    1 1.00
                   0.8                   1

28 0
 s    5 1.00
          1712.8415853  -0.0054477995804909
          257.64812677  -0.040627174632423
          58.458245853   -0.18111962250584
          16.198367905   -0.46843975563173
          5.0052600809   -0.44616846289231
 s    1 1.00
         0.58731856571                   1
 s    1 1.00
         0.18764592253                   1
 p    3 1.00
          13.571470233  -0.058848116969522
          2.9257372874   -0.32024624762471
         0.79927750754   -0.75328226520436
 p    1 1.00
         0.21954348034                   1
 d    1 1.00
                     1                   1

29 0
 s    3 1.00
             13.010701   0.033485484812989
             1.9622572    0.23472187088125
            0.44453796    0.81377028525955
 s    1 1.00
            0.12194962                   1
 p    1 1.00
                   0.8                   1

30 0
 s    3 1.00
             13.010701   0.033485484812989
             1.9622572    0.23472187088125
            0.44453796    0.81377028525955
 s    1 1.00
            0.12194962                   1
 p    1 1.00
                   0.8                   1

31 0
 s    3 1.00
             13.010701   0.033485484812989
             1.9622572    0.23472187088125
            0.44453796    0.81377028525955
 s    1 1.00
            0.12194962                   1
 p    1 1.00
                   0.8                   1

32 0
 s    5 1.00
          1712.8415853  -0.0054477995804909
          257.64812677  -0.040627174632423
          58.458245853   -0.18111962250584
          16.198367905   -0.46843975563173
          5.0052600809   -0.44616846289231
 s    1 1.00
         0.58731856571                   1
 s    1 1.00
         0.18764592253                   1
 p    3 1.00
          13.571470233  -0.058848116969522
          2.9257372874   -0.32024624762471
         0.79927750754   -0.75328226520436
 p    1 1.00
         0.21954348034                   1
 d    1 1.00
                     1                   1

33 0
 s    3 1.00
             13.010701   0.033485484812989
             1.9622572    0.23472187088125
            0.44453796    0.81377028525955
 s    1 1.00
            0.12194962                   1
 p    1 1.00
                   0.8                   1

34 0
 s    3 1.00
             13.010701   0.033485484812989
             1.9622572    0.23472187088125
            0.44453796    0.81377028525955
 s    1 1.00
            0.12194962                   1
 p    1 1.00
                   0.8                   1

35 0
 s    3 1.00
             13.010701   0.033485484812989
             1.9622572    0.23472187088125
            0.44453796    0.81377028525955
 s    1 1.00
            0.12194962                   1
 p    1 1.00
                   0.8                   1

36 0
 s    5 1.00
          1712.8415853  -0.0054477995804909
          257.64812677  -0.040627174632423
          58.458245853   -0.18111962250584
          16.198367905   -0.46843975563173
          5.0052600809   -0.44616846289231
 s    1 1.00
         0.58731856571                   1
 s    1 1.00
         0.18764592253                   1
 p    3 1.00
          13.571470233  -0.058848116969522
          2.9257372874   -0.32024624762471
         0.79927750754   -0.75328226520436
 p    1 1.00
         0.21954348034                   1
 d    1 1.00
                     1                   1

37 0
 s    3 1.00
             13.010701   0.033485484812989
             1.9622572    0.23472187088125
            0.44453796    0.81377028525955
 s    1 1.00
            0.12194962                   1
 p    1 1.00
                   0.8                   1

38 0
 s    3 1.00
             13.010701   0.033485484812989
             1.9622572    0.23472187088125
            0.44453796    0.81377028525955
 s    1 1.00
            0.12194962                   1
 p    1 1.00
                   0.8                   1

39 0
 s    3 1.00
             13.010701   0.033485484812989
             1.9622572    0.23472187088125
            0.44453796    0.81377028525955
 s    1 1.00
            0.12194962                   1
 p    1 1.00
                   0.8                   1

40 0
 s    5 1.00
          1712.8415853  -0.0054477995804909
          257.64812677  -0.040627174632423
          58.458245853   -0.18111962250584
          16.198367905   -0.46843975563173
          5.0052600809   -0.44616846289231
 s    1 1.00
         0.58731856571                   1
 s    1 1.00
         0.18764592253                   1
 p    3 1.00
          13.571470233  -0.058848116969522
          2.9257372874   -0.32024624762471
         0.79927750754   -0.75328226520436
 p    1 1.00
         0.21954348034                   1
 d    1 1.00
                     1                   1

41 0
 s    3 1.00
             13.010701   0.033485484812989
             1.9622572    0.23472187088125
            0.44453796    0.81377028525955
 s    1 1.00
            0.12194962                   1
 p    1 1.00
                   0.8                   1

42 0
 s    3 1.00
             13.010701   0.033485484812989
             1.9622572    0.23472187088125
            0.44453796    0.81377028525955
 s    1 1.00
            0.12194962                   1
 p    1 1.00
                   0.8                   1

43 0
 s    3 1.00
             13.010701   0.033485484812989
             1.9622572    0.23472187088125
            0.44453796    0.81377028525955
 s    1 1.00
            0.12194962                   1
 p    1 1.00
                   0.8                   1

[5d]
[7f]
[9g]

[MO]
 Sym= A
 Ene=               0
 Spin= Alpha
 Occup=    1.00000
   1    -8.6788551958539e-06
   2    1.8124642168057e-05
   3    -0.00014612832419446
   4    -0.00030275228247958
   5     0.001799588671687
   6     0.004792632243277
   7    0.0045607709968057
   8    -0.002028671726147
   9    -0.016748272365645
  10    -0.015942916747771
  11    0.0070942721570979
  12     0.060204724484492
  13     0.057441327813028
  14     -0.02555943588245
  15     -0.02510645099365
  16     0.046451280149385
  17     0.012902887880764
  18    -0.073092930810453
  19     0.018485955933337
  20    -0.015141693163305
  21     0.027786607278556
  22    0.0078829481740573
  23    -0.043136073182695
  24     0.011062000049066
  25    -0.00032468058041559
  26    0.0017633920128922
  27    -0.0016675087188636
  28    -0.0043238510251326
  29    0.0020212527803985
  30    0.0013067672375856
  31    -0.0044575395951392
  32     7.59675835566e-06
  33    -1.6122791846005e-05
  34    0.00012842077379203
  35    -2.8016831193591e-05
  36    -0.0010157629505234
  37    0.0047959421146517
  38    0.0045584567462502
  39    -0.0020279335919223
  40     -0.01676316313373
  41      -0.0159363463818
  42    0.0070810028746114
  43     0.060283873348402
  44     0.057534557943201
  45    -0.025219781567038
  46     0.025272320170045
  47    -0.046553470030652
  48    -0.012806797763849
  49     0.073054563495839
  50    -0.018287840679286
  51     0.015124758546312
  52    -0.027754971732662
  53    -0.0079476486650267
  54     0.043115510948097
  55     -0.01126745381832
  56    -0.00032612011220499
  57    0.0017634526387695
  58    -0.0016741989077467
  59    -0.0043231132224125
  60    0.0020224306247043
  61    0.0013092909231238
  62    -0.0044542460145702
  63    -7.7575735742561e-06
  64    -9.128646527333e-06
  65    5.2795290714147e-05
  66      0.38948049945639
  67      0.36848619138164
  68     -0.16565486138401
  69      0.33626486012059
  70      0.31850166443021
  71     -0.14305223547096
  72    -1.1397341271993e-05
  73    5.010314877662e-06
  74    -8.047674015071e-06
  75    5.3045277313376e-07
  76    -1.7995103858766e-05
  77    -0.0053118298492581
  78    -0.0086315062431522
  79     -0.04526625312957
  80    -0.019368484457951
  81     0.022579238036054
  82     0.011077670262876
  83     0.017608712040794
  84    -0.014744749144783
  85     0.011102446889795
  86    -8.6452288404713e-06
  87    -0.00098444521624144
  88    9.1611542950222e-05
  89    0.0027603415214948
  90    -0.0017972266769421
  91      0.02967454314324
  92    0.0082416419545431
  93    -0.0016217061465988
  94    -8.0711972381091e-06
  95    0.0010948390276605
  96    -0.0059832063028525
  97    -0.0045877768398943
  98    0.0016042966185947
  99    -0.0015827916821067
 100    0.00040332221305484
 101    -0.020419094350607
 102     0.023666062206792
 103    -0.0030799331785321
 104    0.0005224420825222
 105    -0.0010544079459259
 106    -0.0045326584620092
 107    -0.0088218600509595
 108    -0.028018034842254
 109    -0.011769501055976
 110     0.014227911743288
 111     0.017273293213868
 112    0.0026511786126191
 113    0.0051989480171872
 114    -0.014057110819637
 115    0.0023007759218398
 116    -0.0003746984175589
 117    0.0012778807143621
 118    3.163855473041e-06
 119    0.00061384523304983
 120    -0.021129879574711
 121    0.0011499132340779
 122    -0.0016237723077485
 123    0.0010632828826243
 124    0.0022978792539735
 125     0.021937249665261
 126     0.012254293938584
 127    0.0013967457503527
 128    -3.6927639266996e-05
 129    0.0013628591017911
 130    -0.001428756956282
 131    -0.0032310428316884
 132     0.000709599354623
 133    -0.00083454300388854
 134    -0.0013070183755344
 135    0.0046531496154806
 136    0.0073629503325171
 137     0.041267848282764
 138     0.017304963288621
 139    -0.021230170121198
 140    -0.0087062049359337
 141    -0.021445920422203
 142    0.0097763855565561
 143    -0.0085414138534865
 144    0.00099437192611362
 145    -0.0015827752092424
 146    0.00012004456251131
 147    0.0021970844267446
 148    0.0011410047902483
 149     -0.02606039165641
 150    -0.0070715638938191
 151    -0.00020399783754119
 152    -0.0017121024906434
 153    -0.00011697081184611
 154     0.018565592273886
 155    -0.023716152846444
 156    0.0011471214358787
 157    -0.0021487083019479
 158    0.0019141559168156
 159    0.0041282852550952
 160    0.0043603875580009
 161    -0.0016309820316616
 162    0.0013004382329289
 163    -0.00027725057341909
 164    0.0050674301814819
 165    0.0098674026108935
 166     0.031799876169972
 167    0.0069580528663719
 168    -0.021116005354577
 169    -0.017434459459676
 170     0.012668950363297
 171    0.0075459565358934
 172    0.0077751437591222
 173    -0.0015745390122732
 174    -0.00046160771144819
 175    -0.0023730110802818
 176    0.00098863408977262
 177    -0.00092698227128107
 178    0.0064182707291193
 179    0.0032245840526998
 180    -0.00017378670261486
 181    0.0016847349989714
 182    0.00060393860629231
 183    -0.027526210137054
 184    -0.014863532509412
 185    -0.00080805506132032
 186    2.1709283160329e-05
 187    -0.0020608681674113
 188       0.0219319872206
 189    -0.00041734255362429
 190    8.130719728193e-05
 191    -0.0026671964310098
 192    -0.00053898774644576
 193    -4.7060718005375e-07
 194    -6.1298378186109e-05
 195    7.488881851618e-05
 196    -0.019338222898505
 197     -0.01839987288848
 198    0.0084339345125087
 199     0.011790211753788
 200     0.011075324754376
 201    -0.0051094597392409
 202    0.00089153378885329
 203    -0.00082947662440719
 204    -0.00074154358456779
 205    0.00056570962142468
 206    -0.00063808917400737
 207     0.017223456861606
 208    0.0010182122819745
 209    -0.00014737335987758
 210    -0.00031148717103391
 211    0.0013003796909905
 212    -0.019297334140529
 213    -0.0013761654865975
 214    -0.00090350974085879
 215    -0.00094555318069294
 216    -0.00063829557452044
 217    0.0021348158453692
 218    -0.0001518819861724
 219    0.00039991862467066
 220    0.00060338815492902
 221    -0.00037581074797712
 222    0.0053726159354503
 223    0.0085183781833432
 224     0.046765321225211
 225    -0.019618120133494
 226     0.023238184164624
 227     0.011417038531945
 228     0.018480583810494
 229    -0.016438248507091
 230    0.0098605302375595
 231    -9.3575065234376e-05
 232    0.00096444646925491
 233    0.00012561244009707
 234    -0.0028151672854618
 235    0.0016667687175015
 236     0.021141185041821
 237    -0.025208811091227
 238    -0.0034895535525564
 239    0.00066559709634763
 240    -0.0010171024331716
 241    0.0038137029865978
 242    0.0037657056505366
 243    0.0016474316807718
 244    -0.0015850434999014
 245    8.9989996031641e-05
 246    -0.028943410182562
 247    -0.0074044800821525
 248    -0.0014855997562045
 249    -0.00022012543232325
 250    0.0012006007392541
 251    0.0044950057561198
 252    0.0089471281868979
 253     0.026972463840166
 254    -0.010727643401364
 255     0.013945278725254
 256     0.017243715067475
 257    0.00061560093488414
 258    0.0060623688699422
 259    -0.013577788547784
 260    -0.0023338748341831
 261    0.00048097768933213
 262    -0.0013611427102338
 263    9.4775424847283e-05
 264    -0.00039616814749486
 265     -0.02296203684837
 266    -0.013047431285302
 267    0.0012231934362341
 268    7.1706301201326e-05
 269     0.001533299380648
 270     0.020400065594689
 271    0.00088699516703572
 272    -0.0017636663591325
 273    0.00093587261504544
 274    0.0017636655048315
 275     0.003653105582451
 276    0.0028471030854097
 277    0.00086831113909857
 278    -0.00070615793607837
 279    -0.0011649908488013
 280    -0.0051009440973604
 281    -0.0098475131487141
 282    -0.032463062253883
 283    0.0071924998497599
 284     -0.02186887608968
 285    -0.017085372644237
 286     0.012140956337267
 287    0.0090392408875197
 288    0.0074129170536642
 289    0.0016659288900502
 290    0.0004620674741928
 291     0.002214895558662
 292    -0.00096036859058846
 293    0.0010454451276603
 294     0.026829148979196
 295     0.014240209857857
 296    -0.00084248921248317
 297    0.00023501744746567
 298    -0.0020284717355809
 299    -0.0046986856334006
 300    -0.0032993029498374
 301    -0.00020421684976402
 302    0.0016695192590403
 303    0.00082982041781347
 304    -0.022757473678266
 305    0.0018065524162937
 306    2.1103936527743e-05
 307    -0.0028339414160842
 308    -0.00093510979518609
 309    -0.0045866976309885
 310    -0.0074481746190319
 311     -0.03947835295017
 312     0.016773301618571
 313    -0.020759363922469
 314    -0.0082842950406791
 315    -0.020295554288563
 316     0.008468308191048
 317    -0.0098874921271681
 318    -0.0009675638013032
 319    0.0014493635411927
 320    -5.2663458786062e-05
 321    -0.0022102933378486
 322    -0.0013249301986476
 323     0.026502453346132
 324    0.0078660359995253
 325    1.1282946298951e-05
 326    -0.0017591357377225
 327    -5.65787442659e-05
 328    -0.0058994214962647
 329    -0.0055471265353293
 330    -0.001740442324501
 331    0.0011272704448268
 332    -0.00048424994528805
 333    -0.017900255794408
 334     0.021983331635613
 335    0.0010076287065453
 336    -0.0018075052656399
 337    0.0018238555465379
 338    9.6965637057494e-06
 339    5.7736988647217e-05
 340    -9.5816225891991e-05
 341    -0.019497946895806
 342    -0.018342814519488
 343    0.0081635515036142
 344     0.011730302402811