[Molden Format]
made by pyscf v[2.1.1]
[Atoms] (AU)
Cr   1   24     1.56143912275337    -2.46507591990239    -1.82404491365355
Cr   2   24    -1.56139565905251     2.46513072196000     1.82399011159594
O   3   8     0.00002078698737     0.00002834589187    -0.00002645616574
N   4   7     5.12832174930954    -1.10581670549011    -0.60767356069801
H   5   1     6.65216855026694    -1.66292686427314    -1.66487895135981
H   6   1     5.63710405218294    -1.59213394419468     1.18765885421890
H   7   1     5.20084187906585     0.81566059741989    -0.65509245834172
N   8   7     1.71230729763415    -0.02251608677419    -4.99594076510539
H   9   1     0.29795878723855     1.27247165241550    -4.90823668593820
H   10   1     1.50271021425414    -0.85583806455427    -6.73026148236459
H   11   1     3.34039895052705     0.99863710888315    -5.18656310846864
N   12   7     1.41057094787259    -4.90763575303059     1.34785282752440
H   13   1     1.64193389675534    -6.79355407945465     0.97314659318890
H   14   1    -0.29048681014202    -4.81040367474334     2.24006056107205
H   15   1     2.72468082571676    -4.56691435331926     2.71738081369757
N   16   7    -2.00544350380280    -3.82433513431467    -3.04041437688297
H   17   1    -2.87205678671934    -5.05516478184926    -1.83221042023780
H   18   1    -2.03637832046193    -4.76397121413665    -4.73247136936628
H   19   1    -3.24475802163669    -2.37551046050250    -3.28123540501917
N   20   7     3.37923471211299    -5.33493873459111    -3.94755661599306
H   21   1     4.17102617885350    -4.76109883042731    -5.61685374703210
H   22   1     2.26176595533881    -6.82326057413281    -4.47610923358166
H   23   1     4.85383336053810    -6.19899521806112    -3.03922195969837
N   24   7    -5.12827828560868     1.10587339727385     0.60762064836653
H   25   1    -5.15408816501799    -0.81544705836782     0.54662784797006
H   26   1    -5.69743166898356     1.68113626520945    -1.14337690194197
H   27   1    -6.63528195761783     1.56841410187914     1.73267665553083
N   28   7    -1.71226383393328     0.02257088883181     4.99588785277390
H   29   1    -1.62991523860311     0.86667375415253     6.73575491620870
H   30   1    -0.22416876152653    -1.19157625647512     4.98456461383551
H   31   1    -3.28782110056328    -1.08746368536834     5.11339858210385
N   32   7     2.00548696750367     3.82438993637228     3.04035957482536
H   33   1     2.05186651577887     4.68410571893416     4.77402266739321
H   34   1     2.83712330958063     5.12208376337235     1.87805706574587
H   35   1     3.26582090902109     2.38241174030942     3.19051154350492
N   36   7    -1.41052748417173     4.90769055508820    -1.34790762958202
H   37   1    -1.75003190025884     6.78104976168840    -0.99229329828299
H   38   1    -2.65834387984003     4.49309409198925    -2.75785496783350
H   39   1     0.32278033988471     4.89894112313146    -2.18344058692784
N   40   7    -3.37919124841212     5.33499353664873     3.94750181393545
H   41   1    -2.26357064378777     6.83195331430581     4.45515784003860
H   42   1    -4.15358022727151     4.76963661305810     5.62761006813313
H   43   1    -4.86681766873998     6.18449345978121     3.04686590187224
[GTO]
1 0
 s    6 1.00
          51528.086349  0.0017695545768669
          7737.2103487   0.013556436258096
           1760.374847   0.067162645785071
          496.87706544    0.23295905918518
          161.46520598    0.47040576982722
          55.466352268    0.35733072606876
 s    3 1.00
          107.54732999   -0.10605255446629
          12.408671897    0.62543981484169
          5.0423628826    0.44878820793655
 s    3 1.00
          8.5461640165   -0.21819012081133
          1.3900441221    0.70422525667731
         0.56066602876    0.42488555412558
 s    1 1.00
        0.071483705972                   1
 s    1 1.00
        0.028250687604                   1
 p    5 1.00
          640.48536096  0.0093555063746755
          150.69711194   0.068993338492216
          47.503755296     0.2634118959318
          16.934120165    0.51034501651775
           6.240968059    0.33195512953954
 p    3 1.00
          3.0885463206    0.32917682676976
          1.1791047769    0.55491385190365
         0.43369774432    0.23818412855984
 p    1 1.00
              0.120675                   1
 d    4 1.00
          27.559479426   0.036950140313562
          7.4687020327    0.18821519783039
          2.4345903574    0.44641244239929
         0.78244754808     0.5681617303244
 d    1 1.00
         0.21995774311                   1
 f    1 1.00
                 1.147                   1

2 0
 s    6 1.00
          51528.086349  0.0017695545768669
          7737.2103487   0.013556436258096
           1760.374847   0.067162645785071
          496.87706544    0.23295905918518
          161.46520598    0.47040576982722
          55.466352268    0.35733072606876
 s    3 1.00
          107.54732999   -0.10605255446629
          12.408671897    0.62543981484169
          5.0423628826    0.44878820793655
 s    3 1.00
          8.5461640165   -0.21819012081133
          1.3900441221    0.70422525667731
         0.56066602876    0.42488555412558
 s    1 1.00
        0.071483705972                   1
 s    1 1.00
        0.028250687604                   1
 p    5 1.00
          640.48536096  0.0093555063746755
          150.69711194   0.068993338492216
          47.503755296     0.2634118959318
          16.934120165    0.51034501651775
           6.240968059    0.33195512953954
 p    3 1.00
          3.0885463206    0.32917682676976
          1.1791047769    0.55491385190365
         0.43369774432    0.23818412855984
 p    1 1.00
              0.120675                   1
 d    4 1.00
          27.559479426   0.036950140313562
          7.4687020327    0.18821519783039
          2.4345903574    0.44641244239929
         0.78244754808     0.5681617303244
 d    1 1.00
         0.21995774311                   1
 f    1 1.00
                 1.147                   1

3 0
 s    5 1.00
          2266.1767785  -0.0053893503921743
          340.87010191   -0.04023472138896
          77.363135167   -0.18008184205526
           21.47964494   -0.46828857657651
          6.6589433124   -0.44692617160187
 s    1 1.00
         0.80975975668                   1
 s    1 1.00
         0.25530772234                   1
 p    3 1.00
          17.721504317   0.062630248763161
           3.863550544    0.33331138482352
          1.0480920883    0.74148638308122
 p    1 1.00
         0.27641544411                   1
 d    1 1.00
                   1.2                   1

4 0
 s    5 1.00
          1712.8415853  -0.0054477995804909
          257.64812677  -0.040627174632423
          58.458245853   -0.18111962250584
          16.198367905   -0.46843975563173
          5.0052600809   -0.44616846289231
 s    1 1.00
         0.58731856571                   1
 s    1 1.00
         0.18764592253                   1
 p    3 1.00
          13.571470233  -0.058848116969522
          2.9257372874   -0.32024624762471
         0.79927750754   -0.75328226520436
 p    1 1.00
         0.21954348034                   1
 d    1 1.00
                     1                   1

5 0
 s    3 1.00
             13.010701   0.033485484812989
             1.9622572    0.23472187088125
            0.44453796    0.81377028525955
 s    1 1.00
            0.12194962                   1
 p    1 1.00
                   0.8                   1

6 0
 s    3 1.00
             13.010701   0.033485484812989
             1.9622572    0.23472187088125
            0.44453796    0.81377028525955
 s    1 1.00
            0.12194962                   1
 p    1 1.00
                   0.8                   1

7 0
 s    3 1.00
             13.010701   0.033485484812989
             1.9622572    0.23472187088125
            0.44453796    0.81377028525955
 s    1 1.00
            0.12194962                   1
 p    1 1.00
                   0.8                   1

8 0
 s    5 1.00
          1712.8415853  -0.0054477995804909
          257.64812677  -0.040627174632423
          58.458245853   -0.18111962250584
          16.198367905   -0.46843975563173
          5.0052600809   -0.44616846289231
 s    1 1.00
         0.58731856571                   1
 s    1 1.00
         0.18764592253                   1
 p    3 1.00
          13.571470233  -0.058848116969522
          2.9257372874   -0.32024624762471
         0.79927750754   -0.75328226520436
 p    1 1.00
         0.21954348034                   1
 d    1 1.00
                     1                   1

9 0
 s    3 1.00
             13.010701   0.033485484812989
             1.9622572    0.23472187088125
            0.44453796    0.81377028525955
 s    1 1.00
            0.12194962                   1
 p    1 1.00
                   0.8                   1

10 0
 s    3 1.00
             13.010701   0.033485484812989
             1.9622572    0.23472187088125
            0.44453796    0.81377028525955
 s    1 1.00
            0.12194962                   1
 p    1 1.00
                   0.8                   1

11 0
 s    3 1.00
             13.010701   0.033485484812989
             1.9622572    0.23472187088125
            0.44453796    0.81377028525955
 s    1 1.00
            0.12194962                   1
 p    1 1.00
                   0.8                   1

12 0
 s    5 1.00
          1712.8415853  -0.0054477995804909
          257.64812677  -0.040627174632423
          58.458245853   -0.18111962250584
          16.198367905   -0.46843975563173
          5.0052600809   -0.44616846289231
 s    1 1.00
         0.58731856571                   1
 s    1 1.00
         0.18764592253                   1
 p    3 1.00
          13.571470233  -0.058848116969522
          2.9257372874   -0.32024624762471
         0.79927750754   -0.75328226520436
 p    1 1.00
         0.21954348034                   1
 d    1 1.00
                     1                   1

13 0
 s    3 1.00
             13.010701   0.033485484812989
             1.9622572    0.23472187088125
            0.44453796    0.81377028525955
 s    1 1.00
            0.12194962                   1
 p    1 1.00
                   0.8                   1

14 0
 s    3 1.00
             13.010701   0.033485484812989
             1.9622572    0.23472187088125
            0.44453796    0.81377028525955
 s    1 1.00
            0.12194962                   1
 p    1 1.00
                   0.8                   1

15 0
 s    3 1.00
             13.010701   0.033485484812989
             1.9622572    0.23472187088125
            0.44453796    0.81377028525955
 s    1 1.00
            0.12194962                   1
 p    1 1.00
                   0.8                   1

16 0
 s    5 1.00
          1712.8415853  -0.0054477995804909
          257.64812677  -0.040627174632423
          58.458245853   -0.18111962250584
          16.198367905   -0.46843975563173
          5.0052600809   -0.44616846289231
 s    1 1.00
         0.58731856571                   1
 s    1 1.00
         0.18764592253                   1
 p    3 1.00
          13.571470233  -0.058848116969522
          2.9257372874   -0.32024624762471
         0.79927750754   -0.75328226520436
 p    1 1.00
         0.21954348034                   1
 d    1 1.00
                     1                   1

17 0
 s    3 1.00
             13.010701   0.033485484812989
             1.9622572    0.23472187088125
            0.44453796    0.81377028525955
 s    1 1.00
            0.12194962                   1
 p    1 1.00
                   0.8                   1

18 0
 s    3 1.00
             13.010701   0.033485484812989
             1.9622572    0.23472187088125
            0.44453796    0.81377028525955
 s    1 1.00
            0.12194962                   1
 p    1 1.00
                   0.8                   1

19 0
 s    3 1.00
             13.010701   0.033485484812989
             1.9622572    0.23472187088125
            0.44453796    0.81377028525955
 s    1 1.00
            0.12194962                   1
 p    1 1.00
                   0.8                   1

20 0
 s    5 1.00
          1712.8415853  -0.0054477995804909
          257.64812677  -0.040627174632423
          58.458245853   -0.18111962250584
          16.198367905   -0.46843975563173
          5.0052600809   -0.44616846289231
 s    1 1.00
         0.58731856571                   1
 s    1 1.00
         0.18764592253                   1
 p    3 1.00
          13.571470233  -0.058848116969522
          2.9257372874   -0.32024624762471
         0.79927750754   -0.75328226520436
 p    1 1.00
         0.21954348034                   1
 d    1 1.00
                     1                   1

21 0
 s    3 1.00
             13.010701   0.033485484812989
             1.9622572    0.23472187088125
            0.44453796    0.81377028525955
 s    1 1.00
            0.12194962                   1
 p    1 1.00
                   0.8                   1

22 0
 s    3 1.00
             13.010701   0.033485484812989
             1.9622572    0.23472187088125
            0.44453796    0.81377028525955
 s    1 1.00
            0.12194962                   1
 p    1 1.00
                   0.8                   1

23 0
 s    3 1.00
             13.010701   0.033485484812989
             1.9622572    0.23472187088125
            0.44453796    0.81377028525955
 s    1 1.00
            0.12194962                   1
 p    1 1.00
                   0.8                   1

24 0
 s    5 1.00
          1712.8415853  -0.0054477995804909
          257.64812677  -0.040627174632423
          58.458245853   -0.18111962250584
          16.198367905   -0.46843975563173
          5.0052600809   -0.44616846289231
 s    1 1.00
         0.58731856571                   1
 s    1 1.00
         0.18764592253                   1
 p    3 1.00
          13.571470233  -0.058848116969522
          2.9257372874   -0.32024624762471
         0.79927750754   -0.75328226520436
 p    1 1.00
         0.21954348034                   1
 d    1 1.00
                     1                   1

25 0
 s    3 1.00
             13.010701   0.033485484812989
             1.9622572    0.23472187088125
            0.44453796    0.81377028525955
 s    1 1.00
            0.12194962                   1
 p    1 1.00
                   0.8                   1

26 0
 s    3 1.00
             13.010701   0.033485484812989
             1.9622572    0.23472187088125
            0.44453796    0.81377028525955
 s    1 1.00
            0.12194962                   1
 p    1 1.00
                   0.8                   1

27 0
 s    3 1.00
             13.010701   0.033485484812989
             1.9622572    0.23472187088125
            0.44453796    0.81377028525955
 s    1 1.00
            0.12194962                   1
 p    1 1.00
                   0.8                   1

28 0
 s    5 1.00
          1712.8415853  -0.0054477995804909
          257.64812677  -0.040627174632423
          58.458245853   -0.18111962250584
          16.198367905   -0.46843975563173
          5.0052600809   -0.44616846289231
 s    1 1.00
         0.58731856571                   1
 s    1 1.00
         0.18764592253                   1
 p    3 1.00
          13.571470233  -0.058848116969522
          2.9257372874   -0.32024624762471
         0.79927750754   -0.75328226520436
 p    1 1.00
         0.21954348034                   1
 d    1 1.00
                     1                   1

29 0
 s    3 1.00
             13.010701   0.033485484812989
             1.9622572    0.23472187088125
            0.44453796    0.81377028525955
 s    1 1.00
            0.12194962                   1
 p    1 1.00
                   0.8                   1

30 0
 s    3 1.00
             13.010701   0.033485484812989
             1.9622572    0.23472187088125
            0.44453796    0.81377028525955
 s    1 1.00
            0.12194962                   1
 p    1 1.00
                   0.8                   1

31 0
 s    3 1.00
             13.010701   0.033485484812989
             1.9622572    0.23472187088125
            0.44453796    0.81377028525955
 s    1 1.00
            0.12194962                   1
 p    1 1.00
                   0.8                   1

32 0
 s    5 1.00
          1712.8415853  -0.0054477995804909
          257.64812677  -0.040627174632423
          58.458245853   -0.18111962250584
          16.198367905   -0.46843975563173
          5.0052600809   -0.44616846289231
 s    1 1.00
         0.58731856571                   1
 s    1 1.00
         0.18764592253                   1
 p    3 1.00
          13.571470233  -0.058848116969522
          2.9257372874   -0.32024624762471
         0.79927750754   -0.75328226520436
 p    1 1.00
         0.21954348034                   1
 d    1 1.00
                     1                   1

33 0
 s    3 1.00
             13.010701   0.033485484812989
             1.9622572    0.23472187088125
            0.44453796    0.81377028525955
 s    1 1.00
            0.12194962                   1
 p    1 1.00
                   0.8                   1

34 0
 s    3 1.00
             13.010701   0.033485484812989
             1.9622572    0.23472187088125
            0.44453796    0.81377028525955
 s    1 1.00
            0.12194962                   1
 p    1 1.00
                   0.8                   1

35 0
 s    3 1.00
             13.010701   0.033485484812989
             1.9622572    0.23472187088125
            0.44453796    0.81377028525955
 s    1 1.00
            0.12194962                   1
 p    1 1.00
                   0.8                   1

36 0
 s    5 1.00
          1712.8415853  -0.0054477995804909
          257.64812677  -0.040627174632423
          58.458245853   -0.18111962250584
          16.198367905   -0.46843975563173
          5.0052600809   -0.44616846289231
 s    1 1.00
         0.58731856571                   1
 s    1 1.00
         0.18764592253                   1
 p    3 1.00
          13.571470233  -0.058848116969522
          2.9257372874   -0.32024624762471
         0.79927750754   -0.75328226520436
 p    1 1.00
         0.21954348034                   1
 d    1 1.00
                     1                   1

37 0
 s    3 1.00
             13.010701   0.033485484812989
             1.9622572    0.23472187088125
            0.44453796    0.81377028525955
 s    1 1.00
            0.12194962                   1
 p    1 1.00
                   0.8                   1

38 0
 s    3 1.00
             13.010701   0.033485484812989
             1.9622572    0.23472187088125
            0.44453796    0.81377028525955
 s    1 1.00
            0.12194962                   1
 p    1 1.00
                   0.8                   1

39 0
 s    3 1.00
             13.010701   0.033485484812989
             1.9622572    0.23472187088125
            0.44453796    0.81377028525955
 s    1 1.00
            0.12194962                   1
 p    1 1.00
                   0.8                   1

40 0
 s    5 1.00
          1712.8415853  -0.0054477995804909
          257.64812677  -0.040627174632423
          58.458245853   -0.18111962250584
          16.198367905   -0.46843975563173
          5.0052600809   -0.44616846289231
 s    1 1.00
         0.58731856571                   1
 s    1 1.00
         0.18764592253                   1
 p    3 1.00
          13.571470233  -0.058848116969522
          2.9257372874   -0.32024624762471
         0.79927750754   -0.75328226520436
 p    1 1.00
         0.21954348034                   1
 d    1 1.00
                     1                   1

41 0
 s    3 1.00
             13.010701   0.033485484812989
             1.9622572    0.23472187088125
            0.44453796    0.81377028525955
 s    1 1.00
            0.12194962                   1
 p    1 1.00
                   0.8                   1

42 0
 s    3 1.00
             13.010701   0.033485484812989
             1.9622572    0.23472187088125
            0.44453796    0.81377028525955
 s    1 1.00
            0.12194962                   1
 p    1 1.00
                   0.8                   1

43 0
 s    3 1.00
             13.010701   0.033485484812989
             1.9622572    0.23472187088125
            0.44453796    0.81377028525955
 s    1 1.00
            0.12194962                   1
 p    1 1.00
                   0.8                   1

[5d]
[7f]
[9g]

[MO]
 Sym= A
 Ene=               0
 Spin= Alpha
 Occup=    1.00000
   1    -8.6788551984113e-06
   2    1.8124642173111e-05
   3    -0.00014612832424083
   4    -0.00030275228200037
   5    0.0017995886712015
   6    0.0047926322432735
   7    0.0045607709968101
   8    -0.0020286717261477
   9    -0.016748272365633
  10    -0.015942916747788
  11    0.0070942721570991
  12     0.060204724484456
  13     0.057441327813172
  14    -0.025559435882364
  15    -0.025106450993723
  16     0.046451280149396
  17     0.012902887880719
  18    -0.073092930810444
  19     0.018485955933281
  20    -0.015141693163369
  21     0.027786607278562
  22    0.0078829481740605
  23    -0.043136073182658
  24     0.011062000049031
  25    -0.00032468058041835
  26    0.0017633920128954
  27    -0.0016675087188697
  28    -0.0043238510251305
  29    0.0020212527803979
  30    0.0013067672375883
  31    -0.0044575395951364
  32    7.5967583545298e-06
  33    -1.6122791843928e-05
  34    0.00012842077377073
  35    -2.8016830990824e-05
  36    -0.0010157629506997
  37    0.0047959421146456
  38    0.0045584567462511
  39    -0.0020279335919351
  40    -0.016763163133708
  41    -0.015936346381803
  42    0.0070810028746577
  43     0.060283873348285
  44     0.057534557943205
  45    -0.025219781567307
  46     0.025272320170126
  47    -0.046553470030658
  48    -0.012806797763786
  49      0.07305456349583
  50    -0.018287840679238
  51     0.015124758546371
  52    -0.027754971732682
  53    -0.0079476486649889
  54     0.043115510948062
  55    -0.011267453818305
  56    -0.00032612011220563
  57    0.0017634526387733
  58    -0.0016741989077525
  59    -0.0043231132224099
  60    0.0020224306247053
  61    0.0013092909231256
  62    -0.004454246014568
  63    -7.7575735760767e-06
  64    -9.12864649388e-06
  65    5.2795290489172e-05
  66      0.38948049945601
  67       0.3684861913818
  68     -0.16565486138451
  69      0.33626486012029
  70      0.31850166443037
  71     -0.14305223547135
  72    -1.1397341272105e-05
  73    5.0103148786019e-06
  74    -8.0476740165099e-06
  75    5.3045277231529e-07
  76    -1.7995103856161e-05
  77    -0.0053118298492514
  78    -0.0086315062431107
  79    -0.045266253129687
  80    -0.019368484457932
  81     0.022579238036029
  82     0.011077670262872
  83     0.017608712040872
  84    -0.014744749144769
  85     0.011102446889792
  86    -8.645228840121e-06
  87    -0.00098444521624073
  88    9.1611542950083e-05
  89    0.0027603415214925
  90    -0.0017972266769419
  91     0.029674543143207
  92    0.0082416419545516
  93    -0.001621706146599
  94    -8.071197240508e-06
  95     0.001094839027655
  96    -0.0059832063028494
  97    -0.0045877768398591
  98    0.0016042966185883
  99    -0.0015827916821064
 100    0.00040332221305611
 101    -0.020419094350575
 102     0.023666062206837
 103    -0.0030799331785371
 104    0.00052244208251955
 105    -0.0010544079459252
 106    -0.0045326584620138
 107    -0.008821860050951
 108    -0.028018034842379
 109    -0.011769501056014
 110     0.014227911743307
 111     0.017273293213886
 112    0.0026511786126283
 113    0.0051989480171555
 114    -0.014057110819664
 115     0.002300775921844
 116    -0.00037469841756003
 117    0.0012778807143622
 118    3.1638554724965e-06
 119    0.00061384523305088
 120    -0.021129879574735
 121    0.0011499132341169
 122    -0.001623772307749
 123    0.0010632828826252
 124    0.0022978792539791
 125     0.021937249665273
 126     0.012254293938641
 127    0.0013967457503552
 128    -3.6927639266296e-05
 129     0.001362859101792
 130    -0.0014287569562612
 131    -0.0032310428315975
 132    0.00070959935461765
 133    -0.00083454300389227
 134    -0.0013070183755332
 135    0.0046531496154856
 136    0.0073629503325491
 137     0.041267848282665
 138     0.017304963288647
 139    -0.021230170121221
 140    -0.0087062049359424
 141     -0.02144592042221
 142    0.0097763855565476
 143    -0.0085414138534937
 144    0.00099437192611621
 145    -0.0015827752092435
 146    0.00012004456251038
 147    0.0021970844267479
 148    0.0011410047902492
 149    -0.026060391656441
 150    -0.0070715638937611
 151    -0.00020399783754237
 152    -0.0017121024906414
 153    -0.00011697081184609
 154     0.018565592273915
 155     -0.02371615284637
 156    0.0011471214358845
 157    -0.0021487083019479
 158    0.0019141559168135
 159    0.0041282852551027
 160     0.004360387558031
 161    -0.001630982031664
 162    0.0013004382329298
 163    -0.00027725057341944
 164     0.005067430181476
 165    0.0098674026109031
 166     0.031799876169786
 167    0.0069580528663659
 168    -0.021116005354537
 169    -0.017434459459675
 170     0.012668950363331
 171    0.0075459565358057
 172    0.0077751437591193
 173    -0.0015745390122703
 174    -0.00046160771144903
 175    -0.0023730110802798
 176    0.00098863408977168
 177    -0.00092698227127561
 178    0.0064182707291364
 179    0.0032245840527346
 180    -0.00017378670261568
 181    0.0016847349989744
 182    0.00060393860629177
 183    -0.027526210137037
 184    -0.014863532509359
 185    -0.00080805506132138
 186    2.1709283162616e-05
 187    -0.0020608681674101
 188     0.021931987220583
 189    -0.00041734255345167
 190    8.1307197290823e-05
 191    -0.0026671964310145
 192    -0.00053898774644085
 193    -4.7060717990959e-07
 194    -6.1298378177442e-05
 195    7.4888818455575e-05
 196    -0.019338222898487
 197    -0.018399872888491
 198    0.0084339345125357
 199      0.01179021175374
 200     0.011075324754403
 201    -0.0051094597392577
 202    0.00089153378885375
 203    -0.00082947662440913
 204    -0.00074154358456646
 205    0.00056570962142378
 206    -0.00063808917400524
 207     0.017223456861622
 208    0.0010182122820349
 209    -0.00014737335987793
 210    -0.00031148717103566
 211    0.0013003796909949
 212    -0.019297334140524
 213    -0.0013761654865439
 214    -0.00090350974085638
 215    -0.00094555318069173
 216    -0.00063829557451983
 217    0.0021348158453496
 218    -0.00015188198610001
 219    0.00039991862466883
 220     0.000603388154931
 221    -0.00037581074797964
 222    0.0053726159354448
 223    0.0085183781833488
 224      0.04676532122511
 225    -0.019618120133479
 226     0.023238184164601
 227     0.011417038531939
 228     0.018480583810457
 229    -0.016438248507122
 230     0.009860530237553
 231    -9.3575065235119e-05
 232    0.00096444646925372
 233    0.00012561244009761
 234    -0.0028151672854603
 235    0.0016667687175009
 236     0.021141185041792
 237    -0.025208811091232
 238    -0.0034895535525543
 239    0.00066559709634291
 240    -0.0010171024331715
 241    0.0038137029866016
 242    0.0037657056505464
 243    0.0016474316807724
 244    -0.0015850434998994
 245    8.9989996032035e-05
 246    -0.028943410182534
 247    -0.0074044800820945
 248      -0.0014855997562
 249    -0.00022012543232094
 250    0.0012006007392513
 251    0.0044950057561269
 252    0.0089471281869133
 253     0.026972463840201
 254    -0.010727643401391
 255     0.013945278725275
 256     0.017243715067493
 257    0.00061560093492636
 258    0.0060623688699893
 259    -0.013577788547819
 260    -0.0023338748341845
 261    0.00048097768933353
 262    -0.0013611427102346
 263    9.4775424846515e-05
 264    -0.00039616814749697
 265    -0.022962036848401
 266    -0.013047431285275
 267    0.0012231934362346
 268    7.1706301199529e-05
 269    0.0015332993806496
 270     0.020400065594721
 271    0.0008869951670593
 272    -0.0017636663591387
 273    0.00093587261504416
 274    0.0017636655048361
 275    0.0036531055824506
 276    0.0028471030854509
 277    0.00086831113910347
 278    -0.00070615793607981
 279    -0.0011649908488025
 280    -0.0051009440973543
 281    -0.0098475131487142
 282    -0.032463062253776
 283    0.0071924998497487
 284    -0.021868876089645
 285    -0.017085372644229
 286     0.012140956337225
 287    0.0090392408874511
 288    0.0074129170536766
 289    0.0016659288900483
 290    0.00046206747419382
 291    0.0022148955586614
 292    -0.00096036859058645
 293    0.0010454451276571
 294     0.026829148979167
 295     0.014240209857874
 296    -0.00084248921248122
 297    0.00023501744746706
 298    -0.0020284717355802
 299    -0.0046986856334064
 300    -0.0032993029498033
 301    -0.00020421684976267
 302    0.0016695192590372
 303    0.00082982041781462
 304    -0.022757473678247
 305    0.0018065524162774
 306    2.1103936533837e-05
 307    -0.0028339414160803
 308    -0.00093510979518517
 309    -0.0045866976309935
 310    -0.0074481746190082
 311    -0.039478352950378
 312     0.016773301618592
 313    -0.020759363922492
 314    -0.008284295040689
 315    -0.020295554288554
 316    0.0084683081910959
 317    -0.009887492127209
 318    -0.00096756380130498
 319    0.0014493635411928
 320    -5.2663458786132e-05
 321    -0.002210293337852
 322    -0.0013249301986488
 323     0.026502453346172
 324     0.007866035999569
 325    1.1282946297602e-05
 326    -0.001759135737728
 327    -5.6578744263907e-05
 328    -0.0058994214962586
 329    -0.0055471265352874
 330    -0.0017404423245007
 331    0.0011272704448254
 332    -0.00048424994528325
 333    -0.017900255794433
 334      0.02198333163567
 335    0.0010076287065458
 336    -0.0018075052656427
 337    0.0018238555465401
 338    9.6965637050798e-06
 339    5.7736988642546e-05
 340    -9.5816225912919e-05
 341    -0.019497946895785
 342    -0.018342814519499
 343    0.0081635515036386
 344     0.011730302402813