[Molden Format]
made by pyscf v[2.1.1]
[Atoms] (AU)
Cr   1   24     1.56143912275337    -2.46507591990239    -1.82404491365355
Cr   2   24    -1.56139565905251     2.46513072196000     1.82399011159594
O   3   8     0.00002078698737     0.00002834589187    -0.00002645616574
N   4   7     5.12832174930954    -1.10581670549011    -0.60767356069801
H   5   1     6.65216855026694    -1.66292686427314    -1.66487895135981
H   6   1     5.63710405218294    -1.59213394419468     1.18765885421890
H   7   1     5.20084187906585     0.81566059741989    -0.65509245834172
N   8   7     1.71230729763415    -0.02251608677419    -4.99594076510539
H   9   1     0.29795878723855     1.27247165241550    -4.90823668593820
H   10   1     1.50271021425414    -0.85583806455427    -6.73026148236459
H   11   1     3.34039895052705     0.99863710888315    -5.18656310846864
N   12   7     1.41057094787259    -4.90763575303059     1.34785282752440
H   13   1     1.64193389675534    -6.79355407945465     0.97314659318890
H   14   1    -0.29048681014202    -4.81040367474334     2.24006056107205
H   15   1     2.72468082571676    -4.56691435331926     2.71738081369757
N   16   7    -2.00544350380280    -3.82433513431467    -3.04041437688297
H   17   1    -2.87205678671934    -5.05516478184926    -1.83221042023780
H   18   1    -2.03637832046193    -4.76397121413665    -4.73247136936628
H   19   1    -3.24475802163669    -2.37551046050250    -3.28123540501917
N   20   7     3.37923471211299    -5.33493873459111    -3.94755661599306
H   21   1     4.17102617885350    -4.76109883042731    -5.61685374703210
H   22   1     2.26176595533881    -6.82326057413281    -4.47610923358166
H   23   1     4.85383336053810    -6.19899521806112    -3.03922195969837
N   24   7    -5.12827828560868     1.10587339727385     0.60762064836653
H   25   1    -5.15408816501799    -0.81544705836782     0.54662784797006
H   26   1    -5.69743166898356     1.68113626520945    -1.14337690194197
H   27   1    -6.63528195761783     1.56841410187914     1.73267665553083
N   28   7    -1.71226383393328     0.02257088883181     4.99588785277390
H   29   1    -1.62991523860311     0.86667375415253     6.73575491620870
H   30   1    -0.22416876152653    -1.19157625647512     4.98456461383551
H   31   1    -3.28782110056328    -1.08746368536834     5.11339858210385
N   32   7     2.00548696750367     3.82438993637228     3.04035957482536
H   33   1     2.05186651577887     4.68410571893416     4.77402266739321
H   34   1     2.83712330958063     5.12208376337235     1.87805706574587
H   35   1     3.26582090902109     2.38241174030942     3.19051154350492
N   36   7    -1.41052748417173     4.90769055508820    -1.34790762958202
H   37   1    -1.75003190025884     6.78104976168840    -0.99229329828299
H   38   1    -2.65834387984003     4.49309409198925    -2.75785496783350
H   39   1     0.32278033988471     4.89894112313146    -2.18344058692784
N   40   7    -3.37919124841212     5.33499353664873     3.94750181393545
H   41   1    -2.26357064378777     6.83195331430581     4.45515784003860
H   42   1    -4.15358022727151     4.76963661305810     5.62761006813313
H   43   1    -4.86681766873998     6.18449345978121     3.04686590187224
[GTO]
1 0
 s    6 1.00
          51528.086349  0.0017695545768669
          7737.2103487   0.013556436258096
           1760.374847   0.067162645785071
          496.87706544    0.23295905918518
          161.46520598    0.47040576982722
          55.466352268    0.35733072606876
 s    3 1.00
          107.54732999   -0.10605255446629
          12.408671897    0.62543981484169
          5.0423628826    0.44878820793655
 s    3 1.00
          8.5461640165   -0.21819012081133
          1.3900441221    0.70422525667731
         0.56066602876    0.42488555412558
 s    1 1.00
        0.071483705972                   1
 s    1 1.00
        0.028250687604                   1
 p    5 1.00
          640.48536096  0.0093555063746755
          150.69711194   0.068993338492216
          47.503755296     0.2634118959318
          16.934120165    0.51034501651775
           6.240968059    0.33195512953954
 p    3 1.00
          3.0885463206    0.32917682676976
          1.1791047769    0.55491385190365
         0.43369774432    0.23818412855984
 p    1 1.00
              0.120675                   1
 d    4 1.00
          27.559479426   0.036950140313562
          7.4687020327    0.18821519783039
          2.4345903574    0.44641244239929
         0.78244754808     0.5681617303244
 d    1 1.00
         0.21995774311                   1
 f    1 1.00
                 1.147                   1

2 0
 s    6 1.00
          51528.086349  0.0017695545768669
          7737.2103487   0.013556436258096
           1760.374847   0.067162645785071
          496.87706544    0.23295905918518
          161.46520598    0.47040576982722
          55.466352268    0.35733072606876
 s    3 1.00
          107.54732999   -0.10605255446629
          12.408671897    0.62543981484169
          5.0423628826    0.44878820793655
 s    3 1.00
          8.5461640165   -0.21819012081133
          1.3900441221    0.70422525667731
         0.56066602876    0.42488555412558
 s    1 1.00
        0.071483705972                   1
 s    1 1.00
        0.028250687604                   1
 p    5 1.00
          640.48536096  0.0093555063746755
          150.69711194   0.068993338492216
          47.503755296     0.2634118959318
          16.934120165    0.51034501651775
           6.240968059    0.33195512953954
 p    3 1.00
          3.0885463206    0.32917682676976
          1.1791047769    0.55491385190365
         0.43369774432    0.23818412855984
 p    1 1.00
              0.120675                   1
 d    4 1.00
          27.559479426   0.036950140313562
          7.4687020327    0.18821519783039
          2.4345903574    0.44641244239929
         0.78244754808     0.5681617303244
 d    1 1.00
         0.21995774311                   1
 f    1 1.00
                 1.147                   1

3 0
 s    5 1.00
          2266.1767785  -0.0053893503921743
          340.87010191   -0.04023472138896
          77.363135167   -0.18008184205526
           21.47964494   -0.46828857657651
          6.6589433124   -0.44692617160187
 s    1 1.00
         0.80975975668                   1
 s    1 1.00
         0.25530772234                   1
 p    3 1.00
          17.721504317   0.062630248763161
           3.863550544    0.33331138482352
          1.0480920883    0.74148638308122
 p    1 1.00
         0.27641544411                   1
 d    1 1.00
                   1.2                   1

4 0
 s    5 1.00
          1712.8415853  -0.0054477995804909
          257.64812677  -0.040627174632423
          58.458245853   -0.18111962250584
          16.198367905   -0.46843975563173
          5.0052600809   -0.44616846289231
 s    1 1.00
         0.58731856571                   1
 s    1 1.00
         0.18764592253                   1
 p    3 1.00
          13.571470233  -0.058848116969522
          2.9257372874   -0.32024624762471
         0.79927750754   -0.75328226520436
 p    1 1.00
         0.21954348034                   1
 d    1 1.00
                     1                   1

5 0
 s    3 1.00
             13.010701   0.033485484812989
             1.9622572    0.23472187088125
            0.44453796    0.81377028525955
 s    1 1.00
            0.12194962                   1
 p    1 1.00
                   0.8                   1

6 0
 s    3 1.00
             13.010701   0.033485484812989
             1.9622572    0.23472187088125
            0.44453796    0.81377028525955
 s    1 1.00
            0.12194962                   1
 p    1 1.00
                   0.8                   1

7 0
 s    3 1.00
             13.010701   0.033485484812989
             1.9622572    0.23472187088125
            0.44453796    0.81377028525955
 s    1 1.00
            0.12194962                   1
 p    1 1.00
                   0.8                   1

8 0
 s    5 1.00
          1712.8415853  -0.0054477995804909
          257.64812677  -0.040627174632423
          58.458245853   -0.18111962250584
          16.198367905   -0.46843975563173
          5.0052600809   -0.44616846289231
 s    1 1.00
         0.58731856571                   1
 s    1 1.00
         0.18764592253                   1
 p    3 1.00
          13.571470233  -0.058848116969522
          2.9257372874   -0.32024624762471
         0.79927750754   -0.75328226520436
 p    1 1.00
         0.21954348034                   1
 d    1 1.00
                     1                   1

9 0
 s    3 1.00
             13.010701   0.033485484812989
             1.9622572    0.23472187088125
            0.44453796    0.81377028525955
 s    1 1.00
            0.12194962                   1
 p    1 1.00
                   0.8                   1

10 0
 s    3 1.00
             13.010701   0.033485484812989
             1.9622572    0.23472187088125
            0.44453796    0.81377028525955
 s    1 1.00
            0.12194962                   1
 p    1 1.00
                   0.8                   1

11 0
 s    3 1.00
             13.010701   0.033485484812989
             1.9622572    0.23472187088125
            0.44453796    0.81377028525955
 s    1 1.00
            0.12194962                   1
 p    1 1.00
                   0.8                   1

12 0
 s    5 1.00
          1712.8415853  -0.0054477995804909
          257.64812677  -0.040627174632423
          58.458245853   -0.18111962250584
          16.198367905   -0.46843975563173
          5.0052600809   -0.44616846289231
 s    1 1.00
         0.58731856571                   1
 s    1 1.00
         0.18764592253                   1
 p    3 1.00
          13.571470233  -0.058848116969522
          2.9257372874   -0.32024624762471
         0.79927750754   -0.75328226520436
 p    1 1.00
         0.21954348034                   1
 d    1 1.00
                     1                   1

13 0
 s    3 1.00
             13.010701   0.033485484812989
             1.9622572    0.23472187088125
            0.44453796    0.81377028525955
 s    1 1.00
            0.12194962                   1
 p    1 1.00
                   0.8                   1

14 0
 s    3 1.00
             13.010701   0.033485484812989
             1.9622572    0.23472187088125
            0.44453796    0.81377028525955
 s    1 1.00
            0.12194962                   1
 p    1 1.00
                   0.8                   1

15 0
 s    3 1.00
             13.010701   0.033485484812989
             1.9622572    0.23472187088125
            0.44453796    0.81377028525955
 s    1 1.00
            0.12194962                   1
 p    1 1.00
                   0.8                   1

16 0
 s    5 1.00
          1712.8415853  -0.0054477995804909
          257.64812677  -0.040627174632423
          58.458245853   -0.18111962250584
          16.198367905   -0.46843975563173
          5.0052600809   -0.44616846289231
 s    1 1.00
         0.58731856571                   1
 s    1 1.00
         0.18764592253                   1
 p    3 1.00
          13.571470233  -0.058848116969522
          2.9257372874   -0.32024624762471
         0.79927750754   -0.75328226520436
 p    1 1.00
         0.21954348034                   1
 d    1 1.00
                     1                   1

17 0
 s    3 1.00
             13.010701   0.033485484812989
             1.9622572    0.23472187088125
            0.44453796    0.81377028525955
 s    1 1.00
            0.12194962                   1
 p    1 1.00
                   0.8                   1

18 0
 s    3 1.00
             13.010701   0.033485484812989
             1.9622572    0.23472187088125
            0.44453796    0.81377028525955
 s    1 1.00
            0.12194962                   1
 p    1 1.00
                   0.8                   1

19 0
 s    3 1.00
             13.010701   0.033485484812989
             1.9622572    0.23472187088125
            0.44453796    0.81377028525955
 s    1 1.00
            0.12194962                   1
 p    1 1.00
                   0.8                   1

20 0
 s    5 1.00
          1712.8415853  -0.0054477995804909
          257.64812677  -0.040627174632423
          58.458245853   -0.18111962250584
          16.198367905   -0.46843975563173
          5.0052600809   -0.44616846289231
 s    1 1.00
         0.58731856571                   1
 s    1 1.00
         0.18764592253                   1
 p    3 1.00
          13.571470233  -0.058848116969522
          2.9257372874   -0.32024624762471
         0.79927750754   -0.75328226520436
 p    1 1.00
         0.21954348034                   1
 d    1 1.00
                     1                   1

21 0
 s    3 1.00
             13.010701   0.033485484812989
             1.9622572    0.23472187088125
            0.44453796    0.81377028525955
 s    1 1.00
            0.12194962                   1
 p    1 1.00
                   0.8                   1

22 0
 s    3 1.00
             13.010701   0.033485484812989
             1.9622572    0.23472187088125
            0.44453796    0.81377028525955
 s    1 1.00
            0.12194962                   1
 p    1 1.00
                   0.8                   1

23 0
 s    3 1.00
             13.010701   0.033485484812989
             1.9622572    0.23472187088125
            0.44453796    0.81377028525955
 s    1 1.00
            0.12194962                   1
 p    1 1.00
                   0.8                   1

24 0
 s    5 1.00
          1712.8415853  -0.0054477995804909
          257.64812677  -0.040627174632423
          58.458245853   -0.18111962250584
          16.198367905   -0.46843975563173
          5.0052600809   -0.44616846289231
 s    1 1.00
         0.58731856571                   1
 s    1 1.00
         0.18764592253                   1
 p    3 1.00
          13.571470233  -0.058848116969522
          2.9257372874   -0.32024624762471
         0.79927750754   -0.75328226520436
 p    1 1.00
         0.21954348034                   1
 d    1 1.00
                     1                   1

25 0
 s    3 1.00
             13.010701   0.033485484812989
             1.9622572    0.23472187088125
            0.44453796    0.81377028525955
 s    1 1.00
            0.12194962                   1
 p    1 1.00
                   0.8                   1

26 0
 s    3 1.00
             13.010701   0.033485484812989
             1.9622572    0.23472187088125
            0.44453796    0.81377028525955
 s    1 1.00
            0.12194962                   1
 p    1 1.00
                   0.8                   1

27 0
 s    3 1.00
             13.010701   0.033485484812989
             1.9622572    0.23472187088125
            0.44453796    0.81377028525955
 s    1 1.00
            0.12194962                   1
 p    1 1.00
                   0.8                   1

28 0
 s    5 1.00
          1712.8415853  -0.0054477995804909
          257.64812677  -0.040627174632423
          58.458245853   -0.18111962250584
          16.198367905   -0.46843975563173
          5.0052600809   -0.44616846289231
 s    1 1.00
         0.58731856571                   1
 s    1 1.00
         0.18764592253                   1
 p    3 1.00
          13.571470233  -0.058848116969522
          2.9257372874   -0.32024624762471
         0.79927750754   -0.75328226520436
 p    1 1.00
         0.21954348034                   1
 d    1 1.00
                     1                   1

29 0
 s    3 1.00
             13.010701   0.033485484812989
             1.9622572    0.23472187088125
            0.44453796    0.81377028525955
 s    1 1.00
            0.12194962                   1
 p    1 1.00
                   0.8                   1

30 0
 s    3 1.00
             13.010701   0.033485484812989
             1.9622572    0.23472187088125
            0.44453796    0.81377028525955
 s    1 1.00
            0.12194962                   1
 p    1 1.00
                   0.8                   1

31 0
 s    3 1.00
             13.010701   0.033485484812989
             1.9622572    0.23472187088125
            0.44453796    0.81377028525955
 s    1 1.00
            0.12194962                   1
 p    1 1.00
                   0.8                   1

32 0
 s    5 1.00
          1712.8415853  -0.0054477995804909
          257.64812677  -0.040627174632423
          58.458245853   -0.18111962250584
          16.198367905   -0.46843975563173
          5.0052600809   -0.44616846289231
 s    1 1.00
         0.58731856571                   1
 s    1 1.00
         0.18764592253                   1
 p    3 1.00
          13.571470233  -0.058848116969522
          2.9257372874   -0.32024624762471
         0.79927750754   -0.75328226520436
 p    1 1.00
         0.21954348034                   1
 d    1 1.00
                     1                   1

33 0
 s    3 1.00
             13.010701   0.033485484812989
             1.9622572    0.23472187088125
            0.44453796    0.81377028525955
 s    1 1.00
            0.12194962                   1
 p    1 1.00
                   0.8                   1

34 0
 s    3 1.00
             13.010701   0.033485484812989
             1.9622572    0.23472187088125
            0.44453796    0.81377028525955
 s    1 1.00
            0.12194962                   1
 p    1 1.00
                   0.8                   1

35 0
 s    3 1.00
             13.010701   0.033485484812989
             1.9622572    0.23472187088125
            0.44453796    0.81377028525955
 s    1 1.00
            0.12194962                   1
 p    1 1.00
                   0.8                   1

36 0
 s    5 1.00
          1712.8415853  -0.0054477995804909
          257.64812677  -0.040627174632423
          58.458245853   -0.18111962250584
          16.198367905   -0.46843975563173
          5.0052600809   -0.44616846289231
 s    1 1.00
         0.58731856571                   1
 s    1 1.00
         0.18764592253                   1
 p    3 1.00
          13.571470233  -0.058848116969522
          2.9257372874   -0.32024624762471
         0.79927750754   -0.75328226520436
 p    1 1.00
         0.21954348034                   1
 d    1 1.00
                     1                   1

37 0
 s    3 1.00
             13.010701   0.033485484812989
             1.9622572    0.23472187088125
            0.44453796    0.81377028525955
 s    1 1.00
            0.12194962                   1
 p    1 1.00
                   0.8                   1

38 0
 s    3 1.00
             13.010701   0.033485484812989
             1.9622572    0.23472187088125
            0.44453796    0.81377028525955
 s    1 1.00
            0.12194962                   1
 p    1 1.00
                   0.8                   1

39 0
 s    3 1.00
             13.010701   0.033485484812989
             1.9622572    0.23472187088125
            0.44453796    0.81377028525955
 s    1 1.00
            0.12194962                   1
 p    1 1.00
                   0.8                   1

40 0
 s    5 1.00
          1712.8415853  -0.0054477995804909
          257.64812677  -0.040627174632423
          58.458245853   -0.18111962250584
          16.198367905   -0.46843975563173
          5.0052600809   -0.44616846289231
 s    1 1.00
         0.58731856571                   1
 s    1 1.00
         0.18764592253                   1
 p    3 1.00
          13.571470233  -0.058848116969522
          2.9257372874   -0.32024624762471
         0.79927750754   -0.75328226520436
 p    1 1.00
         0.21954348034                   1
 d    1 1.00
                     1                   1

41 0
 s    3 1.00
             13.010701   0.033485484812989
             1.9622572    0.23472187088125
            0.44453796    0.81377028525955
 s    1 1.00
            0.12194962                   1
 p    1 1.00
                   0.8                   1

42 0
 s    3 1.00
             13.010701   0.033485484812989
             1.9622572    0.23472187088125
            0.44453796    0.81377028525955
 s    1 1.00
            0.12194962                   1
 p    1 1.00
                   0.8                   1

43 0
 s    3 1.00
             13.010701   0.033485484812989
             1.9622572    0.23472187088125
            0.44453796    0.81377028525955
 s    1 1.00
            0.12194962                   1
 p    1 1.00
                   0.8                   1

[5d]
[7f]
[9g]

[MO]
 Sym= A
 Ene=               0
 Spin= Alpha
 Occup=    1.00000
   1    -0.0027342022892857
   2    0.0032521675666169
   3    -0.052221054823112
   4    -0.0091292958851965
   5    0.0030442245683083
   6    0.00017142244444027
   7    -0.00017550512630362
   8    -1.1129647848675e-05
   9    -0.0011983096212203
  10    0.0015828978991422
  11    0.00079134516630815
  12    -0.0066982066492978
  13     0.011731785043038
  14    0.0099765426532133
  15     0.012733565482538
  16     0.065236345509601
  17     -0.10397445187601
  18     0.041455964606875
  19     0.088065680460371
  20     0.011180979984718
  21     0.056050379985406
  22    -0.089329258122278
  23     0.035681657239272
  24     0.076072539418795
  25    -0.00057790191547561
  26    -0.00011904711842174
  27    0.00024273480400835
  28    -0.0004161715856574
  29    -0.00092178777183723
  30    0.00064687184564235
  31    7.037632056262e-05
  32    0.00035851132384856
  33    -1.3022204395503e-06
  34     0.007276845910854
  35    0.0097983740290893
  36    0.00050424734897413
  37    0.00049657420941978
  38    -0.00079335948158691
  39    -0.00059583371244212
  40    -0.0025637669915027
  41    0.0040757077298085
  42    0.0030420258331864
  43    0.00070100417302158
  44    -0.0010334196134038
  45    -0.00071248797743494
  46    -0.00071371045315555
  47    -0.0040661667206744
  48    0.0064574302725903
  49    -0.0025971734777545
  50    -0.005424441720158
  51    -0.00051401047196042
  52    -0.0030488999466757
  53     0.004812490268326
  54    -0.0019401156521122
  55    -0.0041085838666155
  56    -0.000227709125456
  57    -5.8300072683224e-05
  58    8.9699565600882e-05
  59    -0.000167132275344
  60    -0.00035499186869297
  61    0.00025735821067755
  62    3.6097521036699e-05
  63    -0.084710266556782
  64     -0.16978845648827
  65     -0.10038837876219
  66    -0.030439921744132
  67     0.047598980843309
  68     0.034833668558417
  69    -0.0089162030823862
  70     0.013354604221711
  71    0.0090224893907839
  72    0.00034724964799922
  73    0.0018137685738752
  74    -0.0028666225726938
  75    0.0011587155389153
  76     0.002462913364253
  77     0.014422186481373
  78      0.13244000697873
  79     0.074789178991437
  80     0.079052898946944
  81     0.028543778794448
  82     0.019991573587457
  83    -0.058226422976227
  84     -0.02449978334296
  85    -0.018957118194114
  86    0.00021740246803221
  87    0.00023388618727548
  88    -0.00067358281042799
  89    0.00013150956748143
  90    -1.2911328209966e-06
  91    0.0092718883144006
  92    -0.0069083087747533
  93    -0.0035473574587364
  94    0.00027948544762063
  95    0.00055096463506294
  96     0.020594324619819
  97    -0.0034308377159099
  98    -0.0040365609384375
  99    -0.00058712220738628
 100    -0.0034827075314583
 101     0.018890702017259
 102    -0.0044636118091783
 103    -0.0028516753269181
 104    -0.0043345566763345
 105    -0.0010802715677178
 106     0.014696169259655
 107      0.13482854554666
 108     0.076790178011558
 109    0.00026374884277282
 110     0.051387182231726
 111    -0.071517553067734
 112    -0.00016892195295942
 113    -0.042981597188018
 114     0.053408305182034
 115    0.0001194077863226
 116    7.7636732624796e-06
 117    -0.00014966032438858
 118    0.00047306474557426
 119    0.00059417254143144
 120     0.018365493524841
 121    -0.0052335569057604
 122    0.0024490989288008
 123    -0.0043240880672185
 124    0.0020110744356128
 125     0.011833785995356
 126    -0.0057510611219736
 127    -0.00030893853964377
 128    -0.00018448838192089
 129    0.0040054655617979
 130     0.019788314559289
 131    -0.0036441526193764
 132    -0.0024351590460907
 133    -0.003312114444692
 134    0.0031770110850433
 135     0.014814717296081
 136      0.13526806574784
 137     0.076525646275053
 138    -0.0050321953181216
 139     -0.05870835627852
 140     0.065512782701933
 141    0.0047626072962286
 142     0.040890942473201
 143    -0.053189748656051
 144    -0.00018774272029839
 145    0.00057155196180709
 146    -0.00022648577566258
 147    0.00031097646632915
 148    0.00025114496560062
 149    0.0095318268522359
 150    -0.0070767828807299
 151    -0.00049173965087456
 152    0.0034836072566815
 153    -0.0010804905951215
 154      0.01919164301317
 155    -0.0046691487733406
 156     0.002955962041674
 157    0.0016458497365445
 158    -0.0042003729845899
 159     0.021166003696324
 160     -0.00350909107865
 161    -0.0016922888316004
 162    0.0018996398665884
 163    -0.0048496277509111
 164     0.014412811598478
 165      0.13225009904371
 166     0.075353048464047
 167     -0.07511399338773
 168    -0.029495908013905
 169    -0.031338162550298
 170     0.060409485538243
 171     0.020921904403355
 172     0.020813060890836
 173    0.00012829519620128
 174    0.00013899748627387
 175    -0.00047764106322446
 176    -0.00026241188393616
 177    0.00047893023740745
 178     0.020052133929166
 179    -0.0034526784816286
 180    0.0042431314027896
 181    0.0030122219890306
 182    -0.00048623004543318
 183    0.0097602342083037
 184    -0.0061193942017846
 185    0.0016698396342906
 186     0.002202164520703
 187    0.0025010891230609
 188     0.018959755121508
 189    -0.0046988177734146
 190    0.0049312195758834
 191    -0.0015988223905367
 192    0.0011339431290473
 193    -0.053699844981764
 194     -0.37189565577158
 195     -0.22055581069838
 196     -0.09963208601121
 197      0.15652924253701
 198      0.11540942933492
 199     0.083468858536695
 200     -0.13068108821204
 201    -0.096171602952066
 202    8.215145738496e-06
 203    0.00025557477565727
 204    -0.00048927289898281
 205    0.00018606879141476
 206    0.00039944841833174
 207    -0.049846394595091
 208     0.012248047280686
 209    0.0064273645429063
 210    -0.0016198090260134
 211    -0.010889224779629
 212    -0.049530697444402
 213     0.012291094647682
 214    -0.0023980018580583
 215    -0.011188871912535
 216    -0.0055721096695302
 217    -0.051276626954164
 218     0.012636017351626
 219    0.0096638605435685
 220    -0.0083501796614031
 221    0.0011514826452502
 222    -0.00087967168250277
 223    -0.00017391359459771
 224    -0.00072141977916204
 225    0.0043455762060868
 226    -0.0032734911261916
 227    -0.0019603660893974
 228    -0.0030132806069005
 229     0.001693126222561
 230    0.00093164365606772
 231    5.355070820278e-05
 232    -0.00014325936263438
 233    2.8592897862031e-05
 234    0.00022768638693723
 235    -8.6160694149918e-05
 236    -0.0030217884821468
 237    -0.001365168881765
 238    -0.00011869001844671
 239    -0.00020887833347489
 240    6.341523122255e-05
 241    0.00017127267741037
 242    -0.00076305063332512
 243    -0.00014981483694846
 244    0.00010732099380795
 245    5.7050796387705e-05
 246     0.004231623615393
 247    0.00047825581341513
 248    0.00026714264782735
 249    8.6970678257178e-07
 250    -0.00021824086829388
 251    -0.00094067987626226
 252    -0.00030515476383028
 253    -0.00090000499758746
 254    0.0024593220506732
 255    -0.0017736263928303
 256    -0.004035782708254
 257    -0.0015513577830204
 258    0.00053610356810606
 259    0.0028932852355686
 260    0.00016297158703227
 261    -1.4837068916459e-05
 262    9.9475462391876e-05
 263    -2.5355081232613e-05
 264    0.0001405666156171
 265    0.0033598102847449
 266    0.00023039628849592
 267    -0.00010131636266302
 268    -8.01332186964e-05
 269    -0.00023375706793438
 270    -0.0028818098645397
 271    -0.0013070033756249
 272    0.00016191739732769
 273    -0.00011902143472365
 274    9.0348807955161e-05
 275    0.00073165806028586
 276    -0.00071067428517875
 277    -3.7504174135561e-05
 278    8.876896318883e-05
 279    0.00013824972812195
 280    -0.00094310042587449
 281    -0.00028037504321398
 282    -0.00084776635774553
 283    0.00011325064142939
 284    -0.0042303585962604
 285    -0.0027804022427732
 286    0.0005770888608639
 287    0.0027704634729654
 288    0.0017699769979855
 289    0.00016122911487142
 290    -1.5092915732388e-05
 291    0.00010968186223597
 292    -3.7079894896809e-05
 293    0.0001372714966826
 294    0.0034153385758444
 295    0.00024612417353136
 296    -4.6095786607704e-05
 297    -3.8591242921434e-05
 298    -0.00026316838856929
 299    0.00064882106446294
 300    -0.00073043708287676
 301    -1.5273189186433e-05
 302    0.00011020670866992
 303    0.00012268215460515
 304    -0.0028504068695019
 305    -0.0013457928063314
 306    0.00016893710217414
 307    -0.00010674282315378
 308    9.7949460642867e-05
 309    -0.00083121088611449
 310    -9.3206293249224e-05
 311    -0.00060861299347265
 312     0.002471052017487
 313    -0.0050025952903222
 314    -0.00094933422120355
 315    -0.0014903676427534
 316    0.0033037182134419
 317    3.6511494611857e-05
 318    -8.8916397969856e-05
 319    6.617409836454e-05
 320    4.1695324579139e-05
 321    -0.00025309839844983
 322    -7.9329034986385e-05
 323    0.0043265600255571
 324    0.00051260009865692
 325    8.0156813884436e-06
 326    -0.0003430979803677
 327    -4.1498602829433e-05
 328    -0.0003311849521753
 329    -0.0010795140880383
 330    -0.00012848430485169
 331    0.00013937098233569
 332    -3.4978572617285e-05
 333    -0.0024622089039173
 334    -0.0012661319130846
 335    0.00016148322971899
 336    0.00014552809641336
 337    -6.2273497128694e-05
 338    0.0040654649723295
 339      0.01718425308311
 340     0.010082641943944
 341    -0.0049450501816265