[Molden Format]
made by pyscf v[2.1.1]
[Atoms] (AU)
Cr   1   24     1.56143912275337    -2.46507591990239    -1.82404491365355
Cr   2   24    -1.56139565905251     2.46513072196000     1.82399011159594
O   3   8     0.00002078698737     0.00002834589187    -0.00002645616574
N   4   7     5.12832174930954    -1.10581670549011    -0.60767356069801
H   5   1     6.65216855026694    -1.66292686427314    -1.66487895135981
H   6   1     5.63710405218294    -1.59213394419468     1.18765885421890
H   7   1     5.20084187906585     0.81566059741989    -0.65509245834172
N   8   7     1.71230729763415    -0.02251608677419    -4.99594076510539
H   9   1     0.29795878723855     1.27247165241550    -4.90823668593820
H   10   1     1.50271021425414    -0.85583806455427    -6.73026148236459
H   11   1     3.34039895052705     0.99863710888315    -5.18656310846864
N   12   7     1.41057094787259    -4.90763575303059     1.34785282752440
H   13   1     1.64193389675534    -6.79355407945465     0.97314659318890
H   14   1    -0.29048681014202    -4.81040367474334     2.24006056107205
H   15   1     2.72468082571676    -4.56691435331926     2.71738081369757
N   16   7    -2.00544350380280    -3.82433513431467    -3.04041437688297
H   17   1    -2.87205678671934    -5.05516478184926    -1.83221042023780
H   18   1    -2.03637832046193    -4.76397121413665    -4.73247136936628
H   19   1    -3.24475802163669    -2.37551046050250    -3.28123540501917
N   20   7     3.37923471211299    -5.33493873459111    -3.94755661599306
H   21   1     4.17102617885350    -4.76109883042731    -5.61685374703210
H   22   1     2.26176595533881    -6.82326057413281    -4.47610923358166
H   23   1     4.85383336053810    -6.19899521806112    -3.03922195969837
N   24   7    -5.12827828560868     1.10587339727385     0.60762064836653
H   25   1    -5.15408816501799    -0.81544705836782     0.54662784797006
H   26   1    -5.69743166898356     1.68113626520945    -1.14337690194197
H   27   1    -6.63528195761783     1.56841410187914     1.73267665553083
N   28   7    -1.71226383393328     0.02257088883181     4.99588785277390
H   29   1    -1.62991523860311     0.86667375415253     6.73575491620870
H   30   1    -0.22416876152653    -1.19157625647512     4.98456461383551
H   31   1    -3.28782110056328    -1.08746368536834     5.11339858210385
N   32   7     2.00548696750367     3.82438993637228     3.04035957482536
H   33   1     2.05186651577887     4.68410571893416     4.77402266739321
H   34   1     2.83712330958063     5.12208376337235     1.87805706574587
H   35   1     3.26582090902109     2.38241174030942     3.19051154350492
N   36   7    -1.41052748417173     4.90769055508820    -1.34790762958202
H   37   1    -1.75003190025884     6.78104976168840    -0.99229329828299
H   38   1    -2.65834387984003     4.49309409198925    -2.75785496783350
H   39   1     0.32278033988471     4.89894112313146    -2.18344058692784
N   40   7    -3.37919124841212     5.33499353664873     3.94750181393545
H   41   1    -2.26357064378777     6.83195331430581     4.45515784003860
H   42   1    -4.15358022727151     4.76963661305810     5.62761006813313
H   43   1    -4.86681766873998     6.18449345978121     3.04686590187224
[GTO]
1 0
 s    6 1.00
          51528.086349  0.0017695545768669
          7737.2103487   0.013556436258096
           1760.374847   0.067162645785071
          496.87706544    0.23295905918518
          161.46520598    0.47040576982722
          55.466352268    0.35733072606876
 s    3 1.00
          107.54732999   -0.10605255446629
          12.408671897    0.62543981484169
          5.0423628826    0.44878820793655
 s    3 1.00
          8.5461640165   -0.21819012081133
          1.3900441221    0.70422525667731
         0.56066602876    0.42488555412558
 s    1 1.00
        0.071483705972                   1
 s    1 1.00
        0.028250687604                   1
 p    5 1.00
          640.48536096  0.0093555063746755
          150.69711194   0.068993338492216
          47.503755296     0.2634118959318
          16.934120165    0.51034501651775
           6.240968059    0.33195512953954
 p    3 1.00
          3.0885463206    0.32917682676976
          1.1791047769    0.55491385190365
         0.43369774432    0.23818412855984
 p    1 1.00
              0.120675                   1
 d    4 1.00
          27.559479426   0.036950140313562
          7.4687020327    0.18821519783039
          2.4345903574    0.44641244239929
         0.78244754808     0.5681617303244
 d    1 1.00
         0.21995774311                   1
 f    1 1.00
                 1.147                   1

2 0
 s    6 1.00
          51528.086349  0.0017695545768669
          7737.2103487   0.013556436258096
           1760.374847   0.067162645785071
          496.87706544    0.23295905918518
          161.46520598    0.47040576982722
          55.466352268    0.35733072606876
 s    3 1.00
          107.54732999   -0.10605255446629
          12.408671897    0.62543981484169
          5.0423628826    0.44878820793655
 s    3 1.00
          8.5461640165   -0.21819012081133
          1.3900441221    0.70422525667731
         0.56066602876    0.42488555412558
 s    1 1.00
        0.071483705972                   1
 s    1 1.00
        0.028250687604                   1
 p    5 1.00
          640.48536096  0.0093555063746755
          150.69711194   0.068993338492216
          47.503755296     0.2634118959318
          16.934120165    0.51034501651775
           6.240968059    0.33195512953954
 p    3 1.00
          3.0885463206    0.32917682676976
          1.1791047769    0.55491385190365
         0.43369774432    0.23818412855984
 p    1 1.00
              0.120675                   1
 d    4 1.00
          27.559479426   0.036950140313562
          7.4687020327    0.18821519783039
          2.4345903574    0.44641244239929
         0.78244754808     0.5681617303244
 d    1 1.00
         0.21995774311                   1
 f    1 1.00
                 1.147                   1

3 0
 s    5 1.00
          2266.1767785  -0.0053893503921743
          340.87010191   -0.04023472138896
          77.363135167   -0.18008184205526
           21.47964494   -0.46828857657651
          6.6589433124   -0.44692617160187
 s    1 1.00
         0.80975975668                   1
 s    1 1.00
         0.25530772234                   1
 p    3 1.00
          17.721504317   0.062630248763161
           3.863550544    0.33331138482352
          1.0480920883    0.74148638308122
 p    1 1.00
         0.27641544411                   1
 d    1 1.00
                   1.2                   1

4 0
 s    5 1.00
          1712.8415853  -0.0054477995804909
          257.64812677  -0.040627174632423
          58.458245853   -0.18111962250584
          16.198367905   -0.46843975563173
          5.0052600809   -0.44616846289231
 s    1 1.00
         0.58731856571                   1
 s    1 1.00
         0.18764592253                   1
 p    3 1.00
          13.571470233  -0.058848116969522
          2.9257372874   -0.32024624762471
         0.79927750754   -0.75328226520436
 p    1 1.00
         0.21954348034                   1
 d    1 1.00
                     1                   1

5 0
 s    3 1.00
             13.010701   0.033485484812989
             1.9622572    0.23472187088125
            0.44453796    0.81377028525955
 s    1 1.00
            0.12194962                   1
 p    1 1.00
                   0.8                   1

6 0
 s    3 1.00
             13.010701   0.033485484812989
             1.9622572    0.23472187088125
            0.44453796    0.81377028525955
 s    1 1.00
            0.12194962                   1
 p    1 1.00
                   0.8                   1

7 0
 s    3 1.00
             13.010701   0.033485484812989
             1.9622572    0.23472187088125
            0.44453796    0.81377028525955
 s    1 1.00
            0.12194962                   1
 p    1 1.00
                   0.8                   1

8 0
 s    5 1.00
          1712.8415853  -0.0054477995804909
          257.64812677  -0.040627174632423
          58.458245853   -0.18111962250584
          16.198367905   -0.46843975563173
          5.0052600809   -0.44616846289231
 s    1 1.00
         0.58731856571                   1
 s    1 1.00
         0.18764592253                   1
 p    3 1.00
          13.571470233  -0.058848116969522
          2.9257372874   -0.32024624762471
         0.79927750754   -0.75328226520436
 p    1 1.00
         0.21954348034                   1
 d    1 1.00
                     1                   1

9 0
 s    3 1.00
             13.010701   0.033485484812989
             1.9622572    0.23472187088125
            0.44453796    0.81377028525955
 s    1 1.00
            0.12194962                   1
 p    1 1.00
                   0.8                   1

10 0
 s    3 1.00
             13.010701   0.033485484812989
             1.9622572    0.23472187088125
            0.44453796    0.81377028525955
 s    1 1.00
            0.12194962                   1
 p    1 1.00
                   0.8                   1

11 0
 s    3 1.00
             13.010701   0.033485484812989
             1.9622572    0.23472187088125
            0.44453796    0.81377028525955
 s    1 1.00
            0.12194962                   1
 p    1 1.00
                   0.8                   1

12 0
 s    5 1.00
          1712.8415853  -0.0054477995804909
          257.64812677  -0.040627174632423
          58.458245853   -0.18111962250584
          16.198367905   -0.46843975563173
          5.0052600809   -0.44616846289231
 s    1 1.00
         0.58731856571                   1
 s    1 1.00
         0.18764592253                   1
 p    3 1.00
          13.571470233  -0.058848116969522
          2.9257372874   -0.32024624762471
         0.79927750754   -0.75328226520436
 p    1 1.00
         0.21954348034                   1
 d    1 1.00
                     1                   1

13 0
 s    3 1.00
             13.010701   0.033485484812989
             1.9622572    0.23472187088125
            0.44453796    0.81377028525955
 s    1 1.00
            0.12194962                   1
 p    1 1.00
                   0.8                   1

14 0
 s    3 1.00
             13.010701   0.033485484812989
             1.9622572    0.23472187088125
            0.44453796    0.81377028525955
 s    1 1.00
            0.12194962                   1
 p    1 1.00
                   0.8                   1

15 0
 s    3 1.00
             13.010701   0.033485484812989
             1.9622572    0.23472187088125
            0.44453796    0.81377028525955
 s    1 1.00
            0.12194962                   1
 p    1 1.00
                   0.8                   1

16 0
 s    5 1.00
          1712.8415853  -0.0054477995804909
          257.64812677  -0.040627174632423
          58.458245853   -0.18111962250584
          16.198367905   -0.46843975563173
          5.0052600809   -0.44616846289231
 s    1 1.00
         0.58731856571                   1
 s    1 1.00
         0.18764592253                   1
 p    3 1.00
          13.571470233  -0.058848116969522
          2.9257372874   -0.32024624762471
         0.79927750754   -0.75328226520436
 p    1 1.00
         0.21954348034                   1
 d    1 1.00
                     1                   1

17 0
 s    3 1.00
             13.010701   0.033485484812989
             1.9622572    0.23472187088125
            0.44453796    0.81377028525955
 s    1 1.00
            0.12194962                   1
 p    1 1.00
                   0.8                   1

18 0
 s    3 1.00
             13.010701   0.033485484812989
             1.9622572    0.23472187088125
            0.44453796    0.81377028525955
 s    1 1.00
            0.12194962                   1
 p    1 1.00
                   0.8                   1

19 0
 s    3 1.00
             13.010701   0.033485484812989
             1.9622572    0.23472187088125
            0.44453796    0.81377028525955
 s    1 1.00
            0.12194962                   1
 p    1 1.00
                   0.8                   1

20 0
 s    5 1.00
          1712.8415853  -0.0054477995804909
          257.64812677  -0.040627174632423
          58.458245853   -0.18111962250584
          16.198367905   -0.46843975563173
          5.0052600809   -0.44616846289231
 s    1 1.00
         0.58731856571                   1
 s    1 1.00
         0.18764592253                   1
 p    3 1.00
          13.571470233  -0.058848116969522
          2.9257372874   -0.32024624762471
         0.79927750754   -0.75328226520436
 p    1 1.00
         0.21954348034                   1
 d    1 1.00
                     1                   1

21 0
 s    3 1.00
             13.010701   0.033485484812989
             1.9622572    0.23472187088125
            0.44453796    0.81377028525955
 s    1 1.00
            0.12194962                   1
 p    1 1.00
                   0.8                   1

22 0
 s    3 1.00
             13.010701   0.033485484812989
             1.9622572    0.23472187088125
            0.44453796    0.81377028525955
 s    1 1.00
            0.12194962                   1
 p    1 1.00
                   0.8                   1

23 0
 s    3 1.00
             13.010701   0.033485484812989
             1.9622572    0.23472187088125
            0.44453796    0.81377028525955
 s    1 1.00
            0.12194962                   1
 p    1 1.00
                   0.8                   1

24 0
 s    5 1.00
          1712.8415853  -0.0054477995804909
          257.64812677  -0.040627174632423
          58.458245853   -0.18111962250584
          16.198367905   -0.46843975563173
          5.0052600809   -0.44616846289231
 s    1 1.00
         0.58731856571                   1
 s    1 1.00
         0.18764592253                   1
 p    3 1.00
          13.571470233  -0.058848116969522
          2.9257372874   -0.32024624762471
         0.79927750754   -0.75328226520436
 p    1 1.00
         0.21954348034                   1
 d    1 1.00
                     1                   1

25 0
 s    3 1.00
             13.010701   0.033485484812989
             1.9622572    0.23472187088125
            0.44453796    0.81377028525955
 s    1 1.00
            0.12194962                   1
 p    1 1.00
                   0.8                   1

26 0
 s    3 1.00
             13.010701   0.033485484812989
             1.9622572    0.23472187088125
            0.44453796    0.81377028525955
 s    1 1.00
            0.12194962                   1
 p    1 1.00
                   0.8                   1

27 0
 s    3 1.00
             13.010701   0.033485484812989
             1.9622572    0.23472187088125
            0.44453796    0.81377028525955
 s    1 1.00
            0.12194962                   1
 p    1 1.00
                   0.8                   1

28 0
 s    5 1.00
          1712.8415853  -0.0054477995804909
          257.64812677  -0.040627174632423
          58.458245853   -0.18111962250584
          16.198367905   -0.46843975563173
          5.0052600809   -0.44616846289231
 s    1 1.00
         0.58731856571                   1
 s    1 1.00
         0.18764592253                   1
 p    3 1.00
          13.571470233  -0.058848116969522
          2.9257372874   -0.32024624762471
         0.79927750754   -0.75328226520436
 p    1 1.00
         0.21954348034                   1
 d    1 1.00
                     1                   1

29 0
 s    3 1.00
             13.010701   0.033485484812989
             1.9622572    0.23472187088125
            0.44453796    0.81377028525955
 s    1 1.00
            0.12194962                   1
 p    1 1.00
                   0.8                   1

30 0
 s    3 1.00
             13.010701   0.033485484812989
             1.9622572    0.23472187088125
            0.44453796    0.81377028525955
 s    1 1.00
            0.12194962                   1
 p    1 1.00
                   0.8                   1

31 0
 s    3 1.00
             13.010701   0.033485484812989
             1.9622572    0.23472187088125
            0.44453796    0.81377028525955
 s    1 1.00
            0.12194962                   1
 p    1 1.00
                   0.8                   1

32 0
 s    5 1.00
          1712.8415853  -0.0054477995804909
          257.64812677  -0.040627174632423
          58.458245853   -0.18111962250584
          16.198367905   -0.46843975563173
          5.0052600809   -0.44616846289231
 s    1 1.00
         0.58731856571                   1
 s    1 1.00
         0.18764592253                   1
 p    3 1.00
          13.571470233  -0.058848116969522
          2.9257372874   -0.32024624762471
         0.79927750754   -0.75328226520436
 p    1 1.00
         0.21954348034                   1
 d    1 1.00
                     1                   1

33 0
 s    3 1.00
             13.010701   0.033485484812989
             1.9622572    0.23472187088125
            0.44453796    0.81377028525955
 s    1 1.00
            0.12194962                   1
 p    1 1.00
                   0.8                   1

34 0
 s    3 1.00
             13.010701   0.033485484812989
             1.9622572    0.23472187088125
            0.44453796    0.81377028525955
 s    1 1.00
            0.12194962                   1
 p    1 1.00
                   0.8                   1

35 0
 s    3 1.00
             13.010701   0.033485484812989
             1.9622572    0.23472187088125
            0.44453796    0.81377028525955
 s    1 1.00
            0.12194962                   1
 p    1 1.00
                   0.8                   1

36 0
 s    5 1.00
          1712.8415853  -0.0054477995804909
          257.64812677  -0.040627174632423
          58.458245853   -0.18111962250584
          16.198367905   -0.46843975563173
          5.0052600809   -0.44616846289231
 s    1 1.00
         0.58731856571                   1
 s    1 1.00
         0.18764592253                   1
 p    3 1.00
          13.571470233  -0.058848116969522
          2.9257372874   -0.32024624762471
         0.79927750754   -0.75328226520436
 p    1 1.00
         0.21954348034                   1
 d    1 1.00
                     1                   1

37 0
 s    3 1.00
             13.010701   0.033485484812989
             1.9622572    0.23472187088125
            0.44453796    0.81377028525955
 s    1 1.00
            0.12194962                   1
 p    1 1.00
                   0.8                   1

38 0
 s    3 1.00
             13.010701   0.033485484812989
             1.9622572    0.23472187088125
            0.44453796    0.81377028525955
 s    1 1.00
            0.12194962                   1
 p    1 1.00
                   0.8                   1

39 0
 s    3 1.00
             13.010701   0.033485484812989
             1.9622572    0.23472187088125
            0.44453796    0.81377028525955
 s    1 1.00
            0.12194962                   1
 p    1 1.00
                   0.8                   1

40 0
 s    5 1.00
          1712.8415853  -0.0054477995804909
          257.64812677  -0.040627174632423
          58.458245853   -0.18111962250584
          16.198367905   -0.46843975563173
          5.0052600809   -0.44616846289231
 s    1 1.00
         0.58731856571                   1
 s    1 1.00
         0.18764592253                   1
 p    3 1.00
          13.571470233  -0.058848116969522
          2.9257372874   -0.32024624762471
         0.79927750754   -0.75328226520436
 p    1 1.00
         0.21954348034                   1
 d    1 1.00
                     1                   1

41 0
 s    3 1.00
             13.010701   0.033485484812989
             1.9622572    0.23472187088125
            0.44453796    0.81377028525955
 s    1 1.00
            0.12194962                   1
 p    1 1.00
                   0.8                   1

42 0
 s    3 1.00
             13.010701   0.033485484812989
             1.9622572    0.23472187088125
            0.44453796    0.81377028525955
 s    1 1.00
            0.12194962                   1
 p    1 1.00
                   0.8                   1

43 0
 s    3 1.00
             13.010701   0.033485484812989
             1.9622572    0.23472187088125
            0.44453796    0.81377028525955
 s    1 1.00
            0.12194962                   1
 p    1 1.00
                   0.8                   1

[5d]
[7f]
[9g]

[MO]
 Sym= A
 Ene=               0
 Spin= Alpha
 Occup=    1.00000
   1    -0.0027342022892851
   2    0.0032521675666153
   3    -0.052221054823106
   4    -0.0091292958853126
   5    0.0030442245686476
   6    0.00017142244444074
   7    -0.00017550512630126
   8    -1.1129647853592e-05
   9    -0.0011983096212216
  10    0.0015828978991325
  11    0.00079134516632567
  12    -0.006698206649304
  13     0.011731785043139
  14    0.0099765426530716
  15     0.012733565482537
  16      0.06523634550961
  17       -0.103974451876
  18      0.04145596460687
  19     0.088065680460367
  20      0.01118097998471
  21     0.056050379985405
  22    -0.089329258122262
  23     0.035681657239265
  24      0.07607253941878
  25    -0.00057790191547625
  26    -0.00011904711842111
  27    0.00024273480401043
  28    -0.00041617158565667
  29    -0.00092178777183739
  30    0.00064687184564137
  31    7.0376320562678e-05
  32    0.00035851132384735
  33    -1.3022204372975e-06
  34    0.0072768459108324
  35    0.0097983740293177
  36    0.00050424734867174
  37    0.0004965742094189
  38    -0.00079335948158531
  39    -0.00059583371244302
  40    -0.0025637669915001
  41    0.0040757077298035
  42    0.0030420258331891
  43    0.00070100417300502
  44    -0.001033419613365
  45    -0.00071248797746716
  46    -0.00071371045315471
  47    -0.0040661667206736
  48     0.006457430272589
  49    -0.0025971734777549
  50    -0.0054244417201558
  51    -0.00051401047195528
  52    -0.0030488999466904
  53    0.0048124902683404
  54    -0.0019401156521173
  55    -0.0041085838666343
  56    -0.00022770912545615
  57    -5.8300072682885e-05
  58    8.969956560099e-05
  59    -0.00016713227534373
  60    -0.00035499186869291
  61    0.00025735821067762
  62    3.6097521036765e-05
  63     -0.08471026655678
  64     -0.16978845648825
  65     -0.10038837876227
  66    -0.030439921744135
  67     0.047598980843312
  68     0.034833668558415
  69    -0.0089162030823782
  70     0.013354604221678
  71    0.0090224893908037
  72    0.00034724964799876
  73    0.0018137685738761
  74    -0.0028666225726953
  75    0.0011587155389159
  76    0.0024629133642536
  77     0.014422186481371
  78      0.13244000697872
  79     0.074789178991488
  80     0.079052898946945
  81     0.028543778794447
  82     0.019991573587464
  83    -0.058226422976218
  84    -0.024499783342985
  85    -0.018957118194102
  86    0.00021740246803217
  87    0.0002338861872746
  88    -0.00067358281042808
  89    0.00013150956748224
  90    -1.2911328208417e-06
  91    0.0092718883144072
  92    -0.0069083087748182
  93    -0.0035473574587342
  94    0.00027948544762184
  95    0.00055096463506147
  96     0.020594324619814
  97    -0.0034308377159373
  98    -0.0040365609384381
  99    -0.00058712220738532
 100    -0.0034827075314562
 101     0.018890702017264
 102    -0.0044636118091837
 103    -0.0028516753269176
 104    -0.0043345566763368
 105    -0.001080271567719
 106     0.014696169259656
 107      0.13482854554667
 108     0.076790178011519
 109    0.00026374884277038
 110     0.051387182231726
 111    -0.071517553067737
 112    -0.00016892195295096
 113    -0.042981597187988
 114     0.053408305181959
 115    0.00011940778632408
 116    7.7636732627644e-06
 117    -0.00014966032438723
 118    0.00047306474557474
 119    0.00059417254143182
 120     0.018365493524836
 121    -0.0052335569057582
 122    0.0024490989288004
 123    -0.0043240880672184
 124    0.0020110744356171
 125     0.011833785995348
 126    -0.0057510611220633
 127    -0.00030893853964526
 128    -0.00018448838192751
 129    0.0040054655617934
 130     0.019788314559285
 131    -0.003644152619406
 132    -0.0024351590460877
 133    -0.003312114444691
 134     0.003177011085048
 135      0.01481471729608
 136      0.13526806574781
 137     0.076525646275202
 138    -0.0050321953181183
 139    -0.058708356278516
 140      0.06551278270193
 141    0.0047626072962376
 142     0.040890942473232
 143    -0.053189748656085
 144    -0.00018774272029841
 145    0.00057155196180766
 146    -0.00022648577566247
 147    0.00031097646632906
 148    0.00025114496560082
 149    0.0095318268522272
 150    -0.0070767828807726
 151    -0.00049173965087495
 152     0.003483607256676
 153    -0.0010804905951195
 154     0.019191643013163
 155    -0.0046691487733539
 156    0.0029559620416718
 157    0.0016458497365422
 158    -0.0042003729845873
 159     0.021166003696309
 160    -0.0035090910786802
 161    -0.0016922888315991
 162    0.0018996398665872
 163    -0.0048496277509056
 164     0.014412811598477
 165      0.13225009904371
 166     0.075353048464095
 167    -0.075113993387734
 168    -0.029495908013909
 169    -0.031338162550301
 170     0.060409485538225
 171     0.020921904403337
 172      0.02081306089085
 173    0.00012829519620227
 174    0.00013899748627365
 175    -0.00047764106322439
 176    -0.00026241188393632
 177    0.00047893023740759
 178      0.02005213392916
 179    -0.0034526784816566
 180    0.0042431314027892
 181    0.0030122219890297
 182    -0.00048623004543029
 183    0.0097602342082975
 184    -0.0061193942018238
 185    0.0016698396342908
 186    0.0022021645207032
 187    0.0025010891230571
 188     0.018959755121512
 189    -0.0046988177734495
 190    0.0049312195758843
 191    -0.0015988223905345
 192    0.0011339431290458
 193    -0.053699844981766
 194     -0.37189565577157
 195     -0.22055581069846
 196    -0.099632086011209
 197      0.15652924253701
 198      0.11540942933491
 199     0.083468858536698
 200     -0.13068108821207
 201       -0.096171602952
 202    8.2151457360242e-06
 203    0.00025557477565989
 204    -0.00048927289898151
 205    0.00018606879141468
 206    0.0003994484183295
 207    -0.049846394595067
 208     0.012248047280761
 209    0.0064273645428981
 210    -0.0016198090260188
 211    -0.010889224779616
 212    -0.049530697444384
 213     0.012291094647651
 214    -0.0023980018580579
 215    -0.011188871912532
 216    -0.005572109669534
 217    -0.051276626954158
 218     0.012636017351566
 219    0.0096638605435692
 220    -0.0083501796614014
 221    0.0011514826452467
 222    -0.00087967168250225
 223    -0.00017391359458393
 224    -0.00072141977922885
 225    0.0043455762060864
 226    -0.0032734911261948
 227    -0.0019603660893994
 228    -0.003013280606902
 229    0.0016931262225487
 230    0.0009316436560708
 231    5.3550708202419e-05
 232    -0.00014325936263363
 233    2.8592897862142e-05
 234    0.00022768638693708
 235    -8.6160694149596e-05
 236    -0.0030217884821487
 237    -0.0013651688817535
 238    -0.00011869001844641
 239    -0.00020887833347455
 240    6.3415231222088e-05
 241    0.00017127267741381
 242    -0.00076305063329605
 243    -0.00014981483694757
 244    0.00010732099380847
 245    5.7050796389864e-05
 246    0.0042316236153969
 247    0.00047825581345728
 248      0.00026714264783
 249    8.697067831165e-07
 250    -0.00021824086829586
 251    -0.00094067987626205
 252    -0.00030515476382171
 253    -0.00090000499763342
 254    0.0024593220506742
 255    -0.0017736263928309
 256    -0.0040357827082535
 257    -0.0015513577830168
 258    0.00053610356810909
 259    0.0028932852355585
 260    0.00016297158703225
 261    -1.4837068916683e-05
 262    9.9475462390935e-05
 263    -2.5355081232786e-05
 264    0.0001405666156171
 265    0.0033598102847458
 266    0.00023039628853926
 267    -0.00010131636266342
 268    -8.0133218697959e-05
 269    -0.00023375706793659
 270    -0.0028818098645389
 271    -0.0013070033756118
 272    0.00016191739732709
 273    -0.00011902143472329
 274    9.0348807955584e-05
 275    0.00073165806028763
 276    -0.00071067428514925
 277    -3.750417413443e-05
 278    8.8768963189826e-05
 279    0.00013824972812214
 280    -0.00094310042587382
 281    -0.00028037504320211
 282    -0.00084776635780141
 283    0.00011325064142997
 284    -0.0042303585962596
 285    -0.0027804022427708
 286    0.00057708886086319
 287    0.0027704634729555
 288    0.0017699769979922
 289    0.00016122911487061
 290    -1.509291573212e-05
 291    0.00010968186223607
 292    -3.7079894896252e-05
 293    0.00013727149668253
 294    0.0034153385758423
 295    0.00024612417356907
 296    -4.6095786607811e-05
 297    -3.8591242921432e-05
 298    -0.00026316838857132
 299    0.00064882106446835
 300    -0.00073043708284473
 301    -1.5273189187968e-05
 302    0.00011020670866831
 303    0.00012268215460629
 304    -0.0028504068694999
 305    -0.0013457928063216
 306    0.00016893710217386
 307    -0.00010674282315316
 308    9.7949460642136e-05
 309    -0.00083121088611361
 310    -9.3206293232742e-05
 311    -0.00060861299354373
 312    0.0024710520174867
 313    -0.0050025952903199
 314    -0.00094933422120653
 315    -0.0014903676427463
 316    0.0033037182134584
 317    3.6511494587648e-05
 318    -8.8916397969544e-05
 319    6.6174098364262e-05
 320    4.1695324579102e-05
 321    -0.00025309839844893
 322    -7.9329034986203e-05
 323    0.0043265600255554
 324    0.00051260009869939
 325    8.0156813883429e-06
 326    -0.00034309798037034
 327    -4.1498602828089e-05
 328    -0.00033118495217314
 329    -0.0010795140880268
 330    -0.00012848430485255
 331    0.00013937098233444
 332    -3.4978572615773e-05
 333    -0.0024622089039149
 334    -0.0012661319130884
 335    0.00016148322972013
 336    0.00014552809641247
 337    -6.2273497127934e-05
 338    0.0040654649723308
 339     0.017184253083137
 340     0.010082641943828
 341    -0.0049450501816252