[Molden Format]
made by pyscf v[2.1.1]
[Atoms] (AU)
Fe   1   26     3.17068844873907     0.00098706064664     0.12237737881307
O   2   8     0.00000000000000     0.00000000000000    -0.89004350580623
Fe   3   26    -3.17068844873907    -0.00098706064664     0.12237737881307
Cl   4   17     3.53383895113107    -2.07485195383062     3.76228752659000
Cl   5   17     5.54152580550813    -1.85590924879884    -2.78672786652360
Cl   6   17     4.48169216485503     3.92976278472880    -0.95330240907949
Cl   7   17    -3.53383895113107     2.07485195383062     3.76228752659000
Cl   8   17    -5.54152580550813     1.85590924879884    -2.78672786652360
Cl   9   17    -4.48169216485503    -3.92976278472880    -0.95330240907949
[GTO]
1 0
 s    6 1.00
          60923.640643  0.0017552243692958
          9147.8893982   0.013449023284001
          2081.3505927   0.066678874640978
          587.55977067    0.23176348548844
           191.0904399    0.46945550248188
          65.732730112     0.3596824938678
 s    3 1.00
          127.25891928   -0.10723431835929
           14.83091301    0.62971616328466
          6.0653307408    0.44472317896179
 s    3 1.00
           10.44994371   -0.21694289195548
          1.7245228003    0.69457867408393
         0.71772177325    0.43298308896347
 s    1 1.00
        0.091449828308                   1
 s    1 1.00
        0.033706691021                   1
 p    5 1.00
          773.43750995  0.0091440529992506
          182.15149714   0.067887577136571
          57.547272758    0.26167978878504
          20.614988935    0.51088040113251
           7.634855789    0.33235475570224
 p    3 1.00
           3.871932799    0.33193859098144
          1.4924724132     0.5553666555499
         0.56061284958    0.23106034201617
 p    1 1.00
              0.134915                   1
 d    4 1.00
          38.968133419   0.033335938558743
          10.800067078    0.17766212505983
          3.6136457999      0.441281781625
          1.2129967888    0.57089200490673
 d    1 1.00
          0.3652439317                   1
 f    1 1.00
                 1.598                   1

2 0
 s    5 1.00
          2266.1767785  -0.0053893503921743
          340.87010191   -0.04023472138896
          77.363135167   -0.18008184205526
           21.47964494   -0.46828857657651
          6.6589433124   -0.44692617160187
 s    1 1.00
         0.80975975668                   1
 s    1 1.00
         0.25530772234                   1
 p    3 1.00
          17.721504317   0.062630248763161
           3.863550544    0.33331138482352
          1.0480920883    0.74148638308122
 p    1 1.00
         0.27641544411                   1
 d    1 1.00
                   1.2                   1

3 0
 s    6 1.00
          60923.640643  0.0017552243692958
          9147.8893982   0.013449023284001
          2081.3505927   0.066678874640978
          587.55977067    0.23176348548844
           191.0904399    0.46945550248188
          65.732730112     0.3596824938678
 s    3 1.00
          127.25891928   -0.10723431835929
           14.83091301    0.62971616328466
          6.0653307408    0.44472317896179
 s    3 1.00
           10.44994371   -0.21694289195548
          1.7245228003    0.69457867408393
         0.71772177325    0.43298308896347
 s    1 1.00
        0.091449828308                   1
 s    1 1.00
        0.033706691021                   1
 p    5 1.00
          773.43750995  0.0091440529992506
          182.15149714   0.067887577136571
          57.547272758    0.26167978878504
          20.614988935    0.51088040113251
           7.634855789    0.33235475570224
 p    3 1.00
           3.871932799    0.33193859098144
          1.4924724132     0.5553666555499
         0.56061284958    0.23106034201617
 p    1 1.00
              0.134915                   1
 d    4 1.00
          38.968133419   0.033335938558743
          10.800067078    0.17766212505983
          3.6136457999      0.441281781625
          1.2129967888    0.57089200490673
 d    1 1.00
          0.3652439317                   1
 f    1 1.00
                 1.598                   1

4 0
 s    5 1.00
          10449.827566  0.0054265953789407
          1571.7365221   0.040626378128836
          357.12065523    0.18359747852877
          100.25185935    0.47438948768198
          30.812727554    0.43735181104122
 s    3 1.00
          51.923789434  -0.092754154848099
          5.7045760975    0.56380825544207
          2.3508376809    0.50367044629712
 s    1 1.00
         0.44605124672                   1
 s    1 1.00
          0.1684885619                   1
 p    5 1.00
          307.66790569  -0.0088797025588865
          72.102015515  -0.064284071721237
          22.532680262   -0.24288739736006
          7.8991765444   -0.48340836369878
          2.8767268321   -0.38952563875509
 p    1 1.00
         0.77459363955                   1
 p    1 1.00
         0.21037699698                   1
 d    1 1.00
                  0.65                   1

5 0
 s    5 1.00
          10449.827566  0.0054265953789407
          1571.7365221   0.040626378128836
          357.12065523    0.18359747852877
          100.25185935    0.47438948768198
          30.812727554    0.43735181104122
 s    3 1.00
          51.923789434  -0.092754154848099
          5.7045760975    0.56380825544207
          2.3508376809    0.50367044629712
 s    1 1.00
         0.44605124672                   1
 s    1 1.00
          0.1684885619                   1
 p    5 1.00
          307.66790569  -0.0088797025588865
          72.102015515  -0.064284071721237
          22.532680262   -0.24288739736006
          7.8991765444   -0.48340836369878
          2.8767268321   -0.38952563875509
 p    1 1.00
         0.77459363955                   1
 p    1 1.00
         0.21037699698                   1
 d    1 1.00
                  0.65                   1

6 0
 s    5 1.00
          10449.827566  0.0054265953789407
          1571.7365221   0.040626378128836
          357.12065523    0.18359747852877
          100.25185935    0.47438948768198
          30.812727554    0.43735181104122
 s    3 1.00
          51.923789434  -0.092754154848099
          5.7045760975    0.56380825544207
          2.3508376809    0.50367044629712
 s    1 1.00
         0.44605124672                   1
 s    1 1.00
          0.1684885619                   1
 p    5 1.00
          307.66790569  -0.0088797025588865
          72.102015515  -0.064284071721237
          22.532680262   -0.24288739736006
          7.8991765444   -0.48340836369878
          2.8767268321   -0.38952563875509
 p    1 1.00
         0.77459363955                   1
 p    1 1.00
         0.21037699698                   1
 d    1 1.00
                  0.65                   1

7 0
 s    5 1.00
          10449.827566  0.0054265953789407
          1571.7365221   0.040626378128836
          357.12065523    0.18359747852877
          100.25185935    0.47438948768198
          30.812727554    0.43735181104122
 s    3 1.00
          51.923789434  -0.092754154848099
          5.7045760975    0.56380825544207
          2.3508376809    0.50367044629712
 s    1 1.00
         0.44605124672                   1
 s    1 1.00
          0.1684885619                   1
 p    5 1.00
          307.66790569  -0.0088797025588865
          72.102015515  -0.064284071721237
          22.532680262   -0.24288739736006
          7.8991765444   -0.48340836369878
          2.8767268321   -0.38952563875509
 p    1 1.00
         0.77459363955                   1
 p    1 1.00
         0.21037699698                   1
 d    1 1.00
                  0.65                   1

8 0
 s    5 1.00
          10449.827566  0.0054265953789407
          1571.7365221   0.040626378128836
          357.12065523    0.18359747852877
          100.25185935    0.47438948768198
          30.812727554    0.43735181104122
 s    3 1.00
          51.923789434  -0.092754154848099
          5.7045760975    0.56380825544207
          2.3508376809    0.50367044629712
 s    1 1.00
         0.44605124672                   1
 s    1 1.00
          0.1684885619                   1
 p    5 1.00
          307.66790569  -0.0088797025588865
          72.102015515  -0.064284071721237
          22.532680262   -0.24288739736006
          7.8991765444   -0.48340836369878
          2.8767268321   -0.38952563875509
 p    1 1.00
         0.77459363955                   1
 p    1 1.00
         0.21037699698                   1
 d    1 1.00
                  0.65                   1

9 0
 s    5 1.00
          10449.827566  0.0054265953789407
          1571.7365221   0.040626378128836
          357.12065523    0.18359747852877
          100.25185935    0.47438948768198
          30.812727554    0.43735181104122
 s    3 1.00
          51.923789434  -0.092754154848099
          5.7045760975    0.56380825544207
          2.3508376809    0.50367044629712
 s    1 1.00
         0.44605124672                   1
 s    1 1.00
          0.1684885619                   1
 p    5 1.00
          307.66790569  -0.0088797025588865
          72.102015515  -0.064284071721237
          22.532680262   -0.24288739736006
          7.8991765444   -0.48340836369878
          2.8767268321   -0.38952563875509
 p    1 1.00
         0.77459363955                   1
 p    1 1.00
         0.21037699698                   1
 d    1 1.00
                  0.65                   1

[5d]
[7f]
[9g]

[MO]
 Sym= A
 Ene=               0
 Spin= Alpha
 Occup=    1.00000
   1      0.01615437334691
   2     -0.04147770124918
   3      0.23866684088059
   4      0.25193318921317
   5    -0.080618231556263
   6    -0.030202572707018
   7    -0.0036976109988205
   8     0.053385804403457
   9      0.10648891483572
  10    0.0043879691647257
  11     -0.17059570795883
  12     0.088799572239399
  13     0.028210731684977
  14    -0.088282796066338
  15    -0.0036491329047267
  16     -0.11913633155025
  17    -0.092956305948981
  18      0.05610333937472
  19       0.0114363460135
  20    -0.0088248552809998
  21    -0.062789640129078
  22    -0.011789034233762
  23     0.011052890430413
  24    -0.00095083288361204
  25    0.0017220633526176
  26      0.00179824981155
  27    -0.0016850628417756
  28    -0.00070621567353751
  29     0.001354671172002
  30    -0.0026734383418373
  31    -0.0017239384519868
  32     0.043483075983772
  33       0.1314583969217
  34      0.11955163814732
  35     0.049807804600429
  36    -0.021015517416206
  37     0.024304168127419
  38     0.067913641654046
  39    -0.031481752600391
  40     0.032277582344214
  41    -0.0019319017742333
  42    0.0023219779795556
  43    -0.00099590678812388
  44    0.0052684414283413
  45    7.5390043018739e-05
  46    5.6601081498991e-05
  47    -0.00076684551106838
  48    -0.003186515512754
  49    -0.023371871646255
  50     0.021529653796416
  51    -0.013781424521726
  52    -0.0042556343666359
  53    -0.0019325714793946
  54     0.046412508748775
  55     0.014872373501545
  56      0.01032006189643
  57     0.020277238375573
  58      0.01627003821177
  59    -0.0095874923798429
  60    0.0086583558742166
  61     0.023931952610046
  62    0.0031217238765579
  63    0.0071184981763355
  64    -0.00073190312155243
  65    0.0013623159259168
  66    0.0028342303626105
  67    0.0013020125290579
  68    0.0081869742078368
  69    -0.0048843759316559
  70    6.8751787491293e-05
  71    -5.8453698120393e-05
  72    8.0053576803743e-06
  73    -0.00010374479700122
  74    0.00020911536441927
  75    6.1793675762798e-05
  76    -0.00059516523110137
  77    -0.0035602991956742
  78     0.020559614531005
  79    -0.067887499011219
  80    -0.027670188676478
  81     0.026552967890917
  82    -0.021904106200936
  83    0.0026307904364054
  84      0.05534485369047
  85    -0.040659048148564
  86     0.015198290059272
  87     0.075190591753316
  88     -0.06247404147576
  89     0.027178045889845
  90    0.0012093940319954
  91    -0.0011416770983094
  92    0.0014548604687447
  93    0.0013689319889275
  94    0.00061070928868954
  95     0.023715285573497
  96     -0.16539833779866
  97      0.36714813285392
  98      0.19291110166079
  99    -0.066827263081823
 100     0.059034661964743
 101     0.065101186686499
 102     -0.14493695177472
 103      0.13619388629703
 104      0.14572350362168
 105     -0.19031895555084
 106      0.17038002990663
 107      0.18679362123442
 108    0.0059057603065386
 109    -0.018446185663939
 110      0.01713982534517
 111    0.00072484517246229
 112    -0.013008923080081
 113     0.016984212185764
 114     -0.11832663676065
 115      0.25903169118474
 116      0.13240008914447
 117    -0.013360875680856
 118    -0.078399082322213
 119    -0.0023441885230945
 120    -0.031959079300929
 121     -0.17323135072057
 122    -0.0023589935168982
 123    -0.041531916695752
 124     -0.22169551401697
 125    0.0079875069260111
 126     -0.00931743271744
 127    -0.0018761199067132
 128    -0.0063350423967358
 129    -0.016710560675202
 130    0.0074857788427862
 131    0.00036066807633361
 132    -0.0044946935410405
 133    0.0070551283302527
 134    0.0056112106925405
 135    0.0065030993337708
 136    0.00084808515200838
 137    -0.0010338015430661
 138     0.013623616681666
 139    0.0027008239125958
 140    -0.0067162858567942
 141     0.021078119063399
 142    0.0038963717811742
 143    -0.0067227958058187
 144    -0.00035207922096192
 145    -0.00059794104739086
 146    0.00015508890223446
 147    -0.00010191658710107
 148    -0.00041739032853715
 149    -0.0019504097320797
 150     0.017314248240055
 151    -0.034326621360933
 152     -0.02475972685392
 153    0.0017376721672653
 154    0.0089481714105362
 155    -0.0083292097704807
 156    0.0031252815902087
 157     0.017967252668206
 158    -0.023599051040581
 159    0.0013538714708098
 160     0.027686891186257
 161    -0.027228132083404
 162    -0.00058621962702866
 163    -0.00084221180543422
 164    0.0016372905826521
 165    0.00023554679182776
 166    0.0010014269220272
 167    -0.001722544174332
 168     0.017182169914052
 169    -0.027084322527077
 170    -0.015990055739528
 171     0.004499856337656
 172    -0.010868531097513
 173    -0.0034245845389058
 174    0.0069643803337639
 175    -0.019479062844441
 176    -0.0064987182220533
 177    0.0077172583042288
 178     -0.03068176275613
 179    -0.016997601150961
 180    0.0011099274466136
 181    -3.2174343925237e-05
 182    -0.0014268116945372
 183    0.0022217134860505
 184    -0.0005850431044657
 Sym= A
 Ene=               1
 Spin= Alpha
 Occup=    1.00000
   1    -0.013188155359139
   2     0.034346101901072
   3     -0.19127280193457
   4     -0.13553638882294
   5     0.044461449263776
   6    -0.0001331915778824
   7    -0.028384411617888
   8     0.034800138398457
   9    -0.0064590998142577
  10     0.079396235477413
  11     -0.13627882218318
  12    -0.033550967337859
  13     0.060903156838085
  14    -0.097054875582183
  15    -0.044810803537244
  16     0.080354618395342
  17      0.13039187702877
  18    -0.033692660081161
  19    -0.012010888289808
  20    -0.028510909404917
  21     0.027694778046112
  22     0.047719802885608
  23    -0.0029651281871314
  24    -0.00035019114953661
  25    -0.00061815261444677
  26    -0.00072011166793772
  27    0.0023568963641959
  28    0.00046071560639917
  29    0.00044534593381146
  30    -0.00025358713700364
  31    0.00027671570604877
  32     0.019908279908739
  33     0.078627029643754
  34     0.041595551065804
  35     0.041807924618354
  36     0.081559302398568
  37    -0.089581456294848
  38     0.021253047659148
  39     0.065737935383696
  40    -0.071981529926254
  41    -0.0028624251349402
  42    -0.00055086296807929
  43    0.0025133304069265
  44    0.00079910634422165
  45    0.00054063976708027
  46    0.0063351155324916
  47    -0.016997271656511
  48     0.096619654865912
  49     0.013721370447758
  50    -0.010532108495666
  51    -0.022936330090328
  52     0.011585316867373
  53    0.0015204234705042
  54     0.076544188979194
  55    -0.041852255873017
  56    -0.0033397048903754
  57    -0.0060392343160282
  58    -0.019712515753838
  59    -0.0064067723785115
  60    0.0057681289700864
  61    -0.024652466401586
  62    0.0032544394476884
  63    -0.036096613914021
  64     0.020782788399181
  65    0.0061280299867508
  66    -0.010815877479571
  67    0.0024239518723172
  68    -0.020470377854974
  69     0.016462341893292
  70    0.00022528417860658
  71    0.00053017300126469
  72    0.00011913160900273
  73    -5.2267592515264e-05
  74    -0.00054213965823858
  75    2.2984047022557e-06
  76    0.00089767023919244
  77    -0.018589858024305
  78      0.13510219006628
  79     -0.29506254198182
  80     -0.15133519919339
  81    0.0018897536243008
  82     -0.03946301265529
  83     0.077167429120028
  84    0.0058130455007516
  85    -0.091563012553235
  86      0.17376164570568
  87    0.0064665005463483
  88     -0.12642567218703
  89      0.22672003763322
  90    -0.013714791642994
  91    -0.0024946393289999
  92     0.016617488601548
  93    0.0048126671692912
  94    0.0012570494804541
  95    -0.004684288022769
  96     0.027461975560333
  97    -0.056309999098894
  98    -0.030933073715684
  99     0.010762597366517
 100     0.014620213162259
 101    -0.036772129147312
 102     0.013453255466413
 103     0.028497627059994
 104    -0.071416053640585
 105     0.026296255054317
 106      0.04324219634162
 107    -0.097246289051186
 108    -0.0051362024493556
 109    0.0044202870706782
 110    -0.0026423043940363
 111    -0.0011498659493414
 112    0.0013295269778881
 113    0.0014168805249413
 114    -0.012646296101689
 115     0.041171287478548
 116     0.012984387236614
 117    -0.0066092243754079
 118    -0.0073024264591479
 119    -0.023762678979078
 120    -0.019866950408966
 121    -0.024276580307511
 122    -0.044837467586677
 123    -0.022413365062479
 124    -0.013038180901631
 125    -0.066841716852656
 126    -0.0011129230407695
 127    -0.0002589621773707
 128    0.0014124485934326
 129    0.00091140501806168
 130    0.00092645648750868
 131    0.0006439800655975
 132    -0.0024796186293668
 133    0.0071102597514267
 134    0.0044391159834848
 135     0.008616708924494
 136    -0.0069808135092963
 137    0.00043971459386695
 138     0.018709557383474
 139    -0.013730962331711
 140    0.0027919850540268
 141     0.025988620785356
 142     -0.01559776771241
 143    0.00086289059191606
 144    0.00062074335510681
 145    -0.00088904805891339
 146    0.00092979519362477
 147    -0.00065024691031929
 148    1.1614637509626e-05
 149    -0.0007622931274864
 150    0.0049851774948928
 151    -0.010551797977773
 152    -0.013889164655614
 153    0.0041021268576601
 154    -0.0023263672804351
 155    -0.0074691441241115
 156    0.0080024479060941
 157    -0.0020516309775417
 158    -0.017686944201388
 159     0.018923674301434
 160    -0.0035741122396567
 161    -0.026945311318396
 162    -0.0015370344601641
 163    -0.00020822563329284
 164    0.00065622041435019
 165    0.00044655429975193
 166    -0.00067610765706079
 167    0.0038484243076976
 168    -0.024644356936987
 169     0.055690774235703
 170     0.033636772578549
 171      0.01777310150412
 172     0.014579864967692
 173    0.0035809803984884
 174     0.035527081035336
 175     0.030924727337462
 176     0.016591195068439
 177      0.05317813699941
 178     0.038070279891208
 179     0.012437947441464
 180    -0.0010075323465579
 181    0.00081345571676457
 182    0.0017311753497129
 183    -0.0026320954457177
 184    0.0018984115622354
 Sym= A
 Ene=               2
 Spin= Alpha
 Occup=    1.00000
   1    -0.0032925625422195
   2     0.016561202453049
   3    -0.083465045945895
   4      0.14628466322671
   5    -0.079241274857879
   6    -0.035735386755954
   7      0.13051794359379
   8      0.25280103302239
   9      0.12872258043037
  10     -0.26854811255982
  11     -0.82532502780809
  12    -0.086371305019087
  13    -0.078288919538204
  14     -0.41287668778019
  15    0.0032962232859897
  16     -0.91215464621585
  17      -1.0890474411248
  18      0.79764627848021
  19      0.18584524410274
  20    -0.067411751627149
  21     -0.33841654534733
  22     -0.19273477801734
  23      0.29588325317006
  24     0.052782377577309
  25    0.0025281176589724
  26    0.0077150937238432
  27    0.0015495785011843
  28    -0.0033862786126908
  29    0.0023341591021143
  30    -0.0082301570841482
  31    -0.0038282306577238
  32      0.24279814612032
  33      0.76337544664031
  34      0.57859784859725
  35      0.29301047042242
  36     -0.57246018657842
  37      0.50448382426893
  38       0.3104130063015
  39     -0.55515311534414
  40      0.44737516755004
  41    0.0038348068426393
  42      0.01054692850906
  43    -0.025111002647488
  44     0.022576227233955
  45    -0.0016475733990115
  46    -0.0018902182804286
  47    0.0032037651768432
  48    -0.075923708491655
  49      -0.3099640452987
  50      0.06431238118455
  51     -0.13502431709468
  52     -0.11632355885845
  53     0.008396325573002
  54      0.47213702949226
  55      0.46341114855405
  56    -0.044869062091973
  57      0.19554005991357
  58      0.14039340838559
  59    -0.0071456094208558
  60      0.08635806792955
  61      0.27693719813267
  62    0.0071060863760259
  63      0.13061335904134
  64     -0.10580032511583
  65    0.0068949587105685
  66     0.096028119715755
  67     0.011054666305761
  68      0.11058914598759
  69     -0.12204807899973
  70    -0.00096072606291689
  71    -0.002807886301955
  72    -6.3083637671717e-05
  73    0.00063832459363668
  74    0.0038254384431391
  75    -0.00056321042941748
  76    -0.0067337897885469
  77    -0.058607416590978
  78      0.35614066818201
  79     -0.80608180417479
  80     -0.45905512156255
  81     0.065668227404603
  82     -0.25758193169297
  83      0.17720905468414
  84      0.14805339833001
  85     -0.51556589348814
  86      0.43254258612938
  87       0.2045795518206
  88     -0.82700267806966
  89      0.57705715684669
  90    -0.025788869523281
  91    0.0046515010609459
  92     0.055712457977396
  93     0.025240279873532
  94    -0.00070525380470329
  95     0.056887045829052
  96      -0.4117195857171
  97      0.91257400972156
  98      0.45268311114905
  99     -0.25014943325168
 100     0.094992459465173
 101        0.140556439516
 102     -0.56519990768795
 103      0.26559728155794
 104      0.29769915505233
 105     -0.74490389378561
 106      0.30721437681746
 107      0.39233511563766
 108    0.0078854304413654
 109    -0.040116759175852
 110     0.038735488436656
 111    0.0028170528888703
 112    -0.031599567781061
 113    0.0052145087477627
 114    -0.0095488673266416
 115     0.044781432127106
 116    -0.027144562166419
 117    -0.015054416255984
 118     0.012116937302328
 119     -0.15278929275719
 120    -0.057230916085904
 121    -0.050863109885654
 122     -0.30528107692029
 123    -0.018920716843298
 124    -0.038011528268786
 125     -0.31367992437793
 126    -0.011634227049876
 127    0.0063674712357375
 128     0.021702215173982
 129    -0.012103714943165
 130    -0.00038453734557227
 131    0.0026992074545132
 132    -0.034769462263825
 133      0.05607659113994
 134      0.02826882458858
 135     0.066955221283748
 136     0.019707489407881
 137    -0.033869370284449
 138      0.13838302624193
 139      0.12941882135864
 140    -0.086310460611842
 141      0.17864794756894
 142      0.12756217855607
 143     -0.12768315772277
 144    0.00094976843769767
 145    -0.0034789582441644
 146    -0.0032596403729631
 147    0.0013009150696163
 148    -0.0054863839095905
 149    -0.011708746792612
 150     0.037879989654524
 151     -0.31027565045184
 152    -0.066389416224256
 153     0.098490127648637
 154     0.096134969011496
 155    -0.047836698545738
 156      0.05104879130276
 157      0.18211227398304
 158     -0.14278271858307
 159      0.12157027068604
 160      0.26913997186559
 161      -0.1339164507201
 162    -0.00031921815246186
 163    -0.005075207292225
 164     0.012570517270292
 165    0.0034930820281807
 166    0.0069983581438896
 167    -0.031567210511883
 168        0.277898078194
 169     -0.36965008755455
 170     -0.35264512631566
 171    0.00098296951331334
 172     -0.18553927500684
 173    -0.090850241028381
 174     0.014950332365285
 175     -0.31924903283317
 176     -0.24099905573068
 177    -0.0068306994412114
 178     -0.53841810665532
 179     -0.24253113210019
 180     0.010852568162358
 181    -0.0040221362010156
 182    -0.023501502609766
 183     0.032149372005696
 184    -0.0087862317734015
 Sym= A
 Ene=               3
 Spin= Alpha
 Occup=    1.00000
   1    -0.0014249246720183
   2     0.004236212833757
   3    -0.018965525021938
   4     0.035399783825536
   5    -0.014055267532977
   6    -0.0010717140869156
   7    -0.00042200260522289
   8    0.0064306696053808
   9    0.0033635631238553
  10    0.0014271600666974
  11    -0.020019411637911
  12    -0.0034850920498141
  13    -0.00036439926656071
  14     0.026446211998246
  15     -0.19173342207727
  16      0.40669943451983
  17      0.61256422746251
  18     -0.39032716411488
  19      -0.1972435182237
  20    -0.050864904066699
  21      0.10984359272935
  22      0.16501626926927
  23     -0.10654184297641
  24    -0.053266975756086
  25    -0.00092189322214038
  26    0.00083680040321274
  27    0.0011083254852234
  28     0.000127772514706
  29    0.00057607037186149
  30    -0.00076442325245115
  31    -0.00025204592163525
  32    -0.0015225034735182
  33    -0.0041053729593489
  34    -0.0021216678339377
  35    -0.0066125530429542
  36    0.00053776048712584
  37      0.03928401957702
  38    -0.0071098052778793
  39    0.00034224216453585
  40     0.038038940967136
  41    0.00014233599025699
  42    -0.00094321218592782
  43    0.00044363296573823
  44    2.0892307282063e-05
  45    -0.00015436091283268
  46    -0.00040830723178774
  47    0.0012218257560995
  48    -0.0054245620008832
  49    0.0057552573579008
  50    -0.00076775853504836
  51    0.0018905682093905
  52    -6.4662084650468e-05
  53    0.00062180820023676
  54    -0.006025357692053
  55    0.00020753946372103
  56    -0.0019826187660275
  57    0.0048997774064737
  58    -0.00031086924425001
  59    0.0063647826532303
  60    -0.00042176261166223
  61    -0.00030095507659473
  62    0.00054803607700688
  63    0.0010825829795014
  64    2.3391570703344e-05
  65    -0.00094970247828852
  66    0.0015877435555263
  67    1.5200815776311e-05
  68    0.00041907218613752
  69    0.0001924820189524
  70    -4.2647000936195e-05
  71    -0.00031226150810503
  72    -3.4045187531831e-05
  73    8.5555869189051e-05
  74    -6.8556118099619e-06
  75    0.00022396595838557
  76    1.1360754601462e-05
  77    0.0020234024076701
  78    -0.013272050035562
  79     0.016817024159109
  80     0.011668369987245
  81    -0.015950885349801
  82    0.0080314067708017
  83    -0.018019644511898
  84     -0.02709634336856
  85     0.013916166974489
  86    -0.031163161822119
  87    -0.044508615291138
  88      0.02281605557063
  89       -0.051611898795
  90    0.00012739181752639
  91    -0.0016725742209436
  92    0.0001374711048743
  93    -0.0011299298552117
  94    0.0010692800811651
  95    -0.00067440529935908
  96    0.0044470114159715
  97    -0.0074699375696617
  98    0.00088751537578405
  99     0.015984267314689
 100     0.022062239612632
 101    -0.011222594542912
 102     0.027091113252757
 103     0.037145400388225
 104    -0.018894902778203
 105     0.043821548721718
 106     0.063107436926435
 107    -0.031652321331873
 108    0.00041878914349215
 109    -0.0012254547263956
 110    -0.001714601686399
 111    0.0020554851397268
 112    0.0013350906267281
 113    -5.6741494657682e-05
 114    0.00037019705378593
 115    -0.0014506467275533
 116    0.0020108542908384
 117     0.010005435194561
 118    -0.0089000479624639
 119    -0.025105812977581
 120     0.016736453794469
 121    -0.015092842259512
 122    -0.042123896678633
 123     0.028216091632562
 124    -0.025832408871684
 125     -0.07135079662002
 126    0.0012180946161458
 127    -0.0013444045438683
 128    -0.0019109885276409
 129    0.0016510401599314
 130    0.00044855806849519
 131    -0.00021990125547226
 132     0.001481389258013
 133    -0.0027438182370042
 134    -0.0013153196225174
 135    -0.0016759709623326
 136    0.00063818395775447
 137    0.00090289562190924
 138    -0.0030700970065071
 139    0.0011161881817951
 140    0.0015779924794454
 141    -0.003963401889461
 142    0.0024237786817342
 143    0.0033296937327671
 144    -0.00010441864857455
 145    -0.00028317528334856
 146    2.7272990858869e-05
 147    0.00018512581823321
 148    -0.00019531200537514
 149    4.6772404809062e-05
 150    -0.00030642046013611
 151    0.00017062784137242
 152    0.0021468273849729
 153    0.00059840661338864
 154    -4.006753989739e-05
 155    -0.0005230025007163
 156    0.0010324942205042
 157    -2.5931592778288e-05
 158    -0.0009209538936291
 159    0.0021377640581525
 160    -0.00087148946680723
 161    -0.00060744027215233
 162    6.2732027053863e-06
 163    0.00010306218051765
 164    -3.3910542472538e-05
 165    -4.9168447902646e-05
 166    -1.3232082768477e-05
 167    -3.5714277335591e-05
 168    0.00024625091781232
 169    -0.00067734775608632
 170    0.00080172574755553
 171    -0.00016003153210106
 172    -0.00018293524237307
 173    -0.0006425014566986
 174    -0.00031656919671298
 175    -0.00033907521628827
 176    -0.0010840606746052
 177    -0.00033121118958209
 178    -0.00014150490680386
 179    -0.0019710260899981
 180    -4.7936868986367e-05
 181    0.00012318481884101
 182    2.9668827576667e-05
 183    1.3362103487427e-05
 184    8.9860057371043e-05
 Sym= A
 Ene=               4
 Spin= Alpha
 Occup=    1.00000
   1    -0.0006032479332753
   2    0.0017906104325815