[Molden Format]
made by pyscf v[2.1.1]
[Atoms] (AU)
Fe   1   26     3.17068844873907     0.00098706064664     0.12237737881307
O   2   8     0.00000000000000     0.00000000000000    -0.89004350580623
Fe   3   26    -3.17068844873907    -0.00098706064664     0.12237737881307
Cl   4   17     3.53383895113107    -2.07485195383062     3.76228752659000
Cl   5   17     5.54152580550813    -1.85590924879884    -2.78672786652360
Cl   6   17     4.48169216485503     3.92976278472880    -0.95330240907949
Cl   7   17    -3.53383895113107     2.07485195383062     3.76228752659000
Cl   8   17    -5.54152580550813     1.85590924879884    -2.78672786652360
Cl   9   17    -4.48169216485503    -3.92976278472880    -0.95330240907949
[GTO]
1 0
 s    6 1.00
          60923.640643  0.0017552243692958
          9147.8893982   0.013449023284001
          2081.3505927   0.066678874640978
          587.55977067    0.23176348548844
           191.0904399    0.46945550248188
          65.732730112     0.3596824938678
 s    3 1.00
          127.25891928   -0.10723431835929
           14.83091301    0.62971616328466
          6.0653307408    0.44472317896179
 s    3 1.00
           10.44994371   -0.21694289195548
          1.7245228003    0.69457867408393
         0.71772177325    0.43298308896347
 s    1 1.00
        0.091449828308                   1
 s    1 1.00
        0.033706691021                   1
 p    5 1.00
          773.43750995  0.0091440529992506
          182.15149714   0.067887577136571
          57.547272758    0.26167978878504
          20.614988935    0.51088040113251
           7.634855789    0.33235475570224
 p    3 1.00
           3.871932799    0.33193859098144
          1.4924724132     0.5553666555499
         0.56061284958    0.23106034201617
 p    1 1.00
              0.134915                   1
 d    4 1.00
          38.968133419   0.033335938558743
          10.800067078    0.17766212505983
          3.6136457999      0.441281781625
          1.2129967888    0.57089200490673
 d    1 1.00
          0.3652439317                   1
 f    1 1.00
                 1.598                   1

2 0
 s    5 1.00
          2266.1767785  -0.0053893503921743
          340.87010191   -0.04023472138896
          77.363135167   -0.18008184205526
           21.47964494   -0.46828857657651
          6.6589433124   -0.44692617160187
 s    1 1.00
         0.80975975668                   1
 s    1 1.00
         0.25530772234                   1
 p    3 1.00
          17.721504317   0.062630248763161
           3.863550544    0.33331138482352
          1.0480920883    0.74148638308122
 p    1 1.00
         0.27641544411                   1
 d    1 1.00
                   1.2                   1

3 0
 s    6 1.00
          60923.640643  0.0017552243692958
          9147.8893982   0.013449023284001
          2081.3505927   0.066678874640978
          587.55977067    0.23176348548844
           191.0904399    0.46945550248188
          65.732730112     0.3596824938678
 s    3 1.00
          127.25891928   -0.10723431835929
           14.83091301    0.62971616328466
          6.0653307408    0.44472317896179
 s    3 1.00
           10.44994371   -0.21694289195548
          1.7245228003    0.69457867408393
         0.71772177325    0.43298308896347
 s    1 1.00
        0.091449828308                   1
 s    1 1.00
        0.033706691021                   1
 p    5 1.00
          773.43750995  0.0091440529992506
          182.15149714   0.067887577136571
          57.547272758    0.26167978878504
          20.614988935    0.51088040113251
           7.634855789    0.33235475570224
 p    3 1.00
           3.871932799    0.33193859098144
          1.4924724132     0.5553666555499
         0.56061284958    0.23106034201617
 p    1 1.00
              0.134915                   1
 d    4 1.00
          38.968133419   0.033335938558743
          10.800067078    0.17766212505983
          3.6136457999      0.441281781625
          1.2129967888    0.57089200490673
 d    1 1.00
          0.3652439317                   1
 f    1 1.00
                 1.598                   1

4 0
 s    5 1.00
          10449.827566  0.0054265953789407
          1571.7365221   0.040626378128836
          357.12065523    0.18359747852877
          100.25185935    0.47438948768198
          30.812727554    0.43735181104122
 s    3 1.00
          51.923789434  -0.092754154848099
          5.7045760975    0.56380825544207
          2.3508376809    0.50367044629712
 s    1 1.00
         0.44605124672                   1
 s    1 1.00
          0.1684885619                   1
 p    5 1.00
          307.66790569  -0.0088797025588865
          72.102015515  -0.064284071721237
          22.532680262   -0.24288739736006
          7.8991765444   -0.48340836369878
          2.8767268321   -0.38952563875509
 p    1 1.00
         0.77459363955                   1
 p    1 1.00
         0.21037699698                   1
 d    1 1.00
                  0.65                   1

5 0
 s    5 1.00
          10449.827566  0.0054265953789407
          1571.7365221   0.040626378128836
          357.12065523    0.18359747852877
          100.25185935    0.47438948768198
          30.812727554    0.43735181104122
 s    3 1.00
          51.923789434  -0.092754154848099
          5.7045760975    0.56380825544207
          2.3508376809    0.50367044629712
 s    1 1.00
         0.44605124672                   1
 s    1 1.00
          0.1684885619                   1
 p    5 1.00
          307.66790569  -0.0088797025588865
          72.102015515  -0.064284071721237
          22.532680262   -0.24288739736006
          7.8991765444   -0.48340836369878
          2.8767268321   -0.38952563875509
 p    1 1.00
         0.77459363955                   1
 p    1 1.00
         0.21037699698                   1
 d    1 1.00
                  0.65                   1

6 0
 s    5 1.00
          10449.827566  0.0054265953789407
          1571.7365221   0.040626378128836
          357.12065523    0.18359747852877
          100.25185935    0.47438948768198
          30.812727554    0.43735181104122
 s    3 1.00
          51.923789434  -0.092754154848099
          5.7045760975    0.56380825544207
          2.3508376809    0.50367044629712
 s    1 1.00
         0.44605124672                   1
 s    1 1.00
          0.1684885619                   1
 p    5 1.00
          307.66790569  -0.0088797025588865
          72.102015515  -0.064284071721237
          22.532680262   -0.24288739736006
          7.8991765444   -0.48340836369878
          2.8767268321   -0.38952563875509
 p    1 1.00
         0.77459363955                   1
 p    1 1.00
         0.21037699698                   1
 d    1 1.00
                  0.65                   1

7 0
 s    5 1.00
          10449.827566  0.0054265953789407
          1571.7365221   0.040626378128836
          357.12065523    0.18359747852877
          100.25185935    0.47438948768198
          30.812727554    0.43735181104122
 s    3 1.00
          51.923789434  -0.092754154848099
          5.7045760975    0.56380825544207
          2.3508376809    0.50367044629712
 s    1 1.00
         0.44605124672                   1
 s    1 1.00
          0.1684885619                   1
 p    5 1.00
          307.66790569  -0.0088797025588865
          72.102015515  -0.064284071721237
          22.532680262   -0.24288739736006
          7.8991765444   -0.48340836369878
          2.8767268321   -0.38952563875509
 p    1 1.00
         0.77459363955                   1
 p    1 1.00
         0.21037699698                   1
 d    1 1.00
                  0.65                   1

8 0
 s    5 1.00
          10449.827566  0.0054265953789407
          1571.7365221   0.040626378128836
          357.12065523    0.18359747852877
          100.25185935    0.47438948768198
          30.812727554    0.43735181104122
 s    3 1.00
          51.923789434  -0.092754154848099
          5.7045760975    0.56380825544207
          2.3508376809    0.50367044629712
 s    1 1.00
         0.44605124672                   1
 s    1 1.00
          0.1684885619                   1
 p    5 1.00
          307.66790569  -0.0088797025588865
          72.102015515  -0.064284071721237
          22.532680262   -0.24288739736006
          7.8991765444   -0.48340836369878
          2.8767268321   -0.38952563875509
 p    1 1.00
         0.77459363955                   1
 p    1 1.00
         0.21037699698                   1
 d    1 1.00
                  0.65                   1

9 0
 s    5 1.00
          10449.827566  0.0054265953789407
          1571.7365221   0.040626378128836
          357.12065523    0.18359747852877
          100.25185935    0.47438948768198
          30.812727554    0.43735181104122
 s    3 1.00
          51.923789434  -0.092754154848099
          5.7045760975    0.56380825544207
          2.3508376809    0.50367044629712
 s    1 1.00
         0.44605124672                   1
 s    1 1.00
          0.1684885619                   1
 p    5 1.00
          307.66790569  -0.0088797025588865
          72.102015515  -0.064284071721237
          22.532680262   -0.24288739736006
          7.8991765444   -0.48340836369878
          2.8767268321   -0.38952563875509
 p    1 1.00
         0.77459363955                   1
 p    1 1.00
         0.21037699698                   1
 d    1 1.00
                  0.65                   1

[5d]
[7f]
[9g]

[MO]
 Sym= A
 Ene=               0
 Spin= Alpha
 Occup=    1.00000
   1    -0.0096509673810746
   2     0.026011807649435
   3     -0.14113981041222
   4     0.012043235659741
   5     0.014879089299435
   6    -0.050251484976513
   7     0.053048102595879
   8    0.0015784120489398
   9      0.16963718863148
  10     -0.17711013662976
  11    -0.0043974602250016
  12    0.0081508205021374
  13    -0.059388420469706
  14    -0.009102170040958
  15    0.0057174055178511
  16     0.012669758308343
  17     0.013646489280567
  18     0.067636484298476
  19    -0.071026593688378
  20    0.0063173516185371
  21     0.001975473553392
  22    0.0077899175542612
  23     0.037414923865032
  24    -0.049106549250909
  25    0.00059361029365674
  26    0.0012035896511012
  27    -0.00016791333791844
  28    -0.0019206219458993
  29    0.0016655770048867
  30    -0.00043242783417698
  31     0.001721886712783
  32    -2.4444601530995e-16
  33    -8.3942691701917e-16
  34    -6.0307590887492e-16
  35      0.12195421818109
  36       0.1524264322952
  37    -2.2645305819521e-16
  38      0.11050525373274
  39      0.14734752053172
  40    -2.225978638908e-16
  41    5.2331940348021e-18
  42    0.0032428639750348
  43    0.0031585559738668
  44    -2.167971138585e-17
  45    4.9896901321753e-19
  46    0.0096509673810746
  47    -0.026011807649435
  48      0.14113981041222
  49    -0.012043235659741
  50    -0.014879089299435
  51    -0.050251484976512
  52     0.053048102595879
  53     -0.00157841204894
  54      0.16963718863148
  55     -0.17711013662976
  56    0.0043974602250022
  57    0.0081508205021373
  58    -0.059388420469706
  59    0.0091021700409583
  60    -0.0057174055178509
  61     0.012669758308342
  62     0.013646489280567
  63    -0.067636484298476
  64     0.071026593688378
  65    -0.006317351618537
  66    0.0019754735533919
  67    0.0077899175542613
  68    -0.037414923865032
  69     0.049106549250909
  70    -0.00059361029365674
  71    0.0012035896511012
  72    -0.00016791333791844
  73    0.0019206219458993
  74    -0.0016655770048867
  75    -0.00043242783417699
  76     0.001721886712783
  77    0.0032898659741439
  78    -0.023587627021358
  79     0.056509696623547
  80      0.02741735452845
  81     0.017358735346804
  82    -0.021725643707889
  83    -0.026529356353442
  84     0.035495147292358
  85    -0.038561759036863
  86    -0.059910830148079
  87     0.053545244314762
  88    -0.058075814607625
  89    -0.084678766904655
  90     0.005171856571562
  91    -0.0025219657456841
  92    -0.0016068669559104
  93    0.00068211128231579
  94    0.00077757839644765
  95    0.0082237888266295
  96    -0.058493015744498
  97      0.13672488487853
  98      0.07512111047088
  99    -0.0094055641662796
 100    -0.0005205661003948
 101     0.046849645440503
 102    -0.028201352433769
 103    0.0044511824173729
 104      0.10297241453389
 105    -0.033065855296624
 106    0.0066718864625256
 107       0.1489677719415
 108    0.0066130818576434
 109       -0.006886784205
 110    0.0044430404496687
 111    0.0017864563885411
 112    -0.0023964630908705
 113    -0.012837909118433
 114     0.089055711542658
 115     -0.18467904157405
 116     -0.10715447199083
 117     0.054358701010696
 118      0.04755537623497
 119      -0.0237538936021
 120      0.11108994890459
 121      0.10205353164013
 122    -0.048392395989781
 123      0.15804190601065
 124      0.14553975489924
 125    -0.071863758669748
 126    0.0026636979881825
 127    0.0034634152215873
 128    0.0077609639319538
 129    0.0083194547594768
 130    -0.006486743718487
 131    -0.003289865974144
 132     0.023587627021358
 133    -0.056509696623546
 134    -0.027417354528449
 135     0.017358735346804
 136    -0.021725643707889
 137     0.026529356353442
 138     0.035495147292358
 139    -0.038561759036863
 140     0.059910830148078
 141     0.053545244314762
 142    -0.058075814607626
 143     0.084678766904655
 144    -0.005171856571562
 145    -0.0025219657456841
 146    -0.0016068669559104
 147    -0.00068211128231581
 148    -0.00077757839644764
 149    -0.0082237888266295
 150     0.058493015744498
 151     -0.13672488487853
 152    -0.075121110470881
 153    -0.0094055641662798
 154    -0.00052056610039474
 155    -0.046849645440503
 156     -0.02820135243377
 157     0.004451182417373
 158     -0.10297241453389
 159    -0.033065855296625
 160    0.0066718864625257
 161      -0.1489677719415
 162    -0.0066130818576434
 163       -0.006886784205
 164    0.0044430404496688
 165    -0.0017864563885411
 166    0.0023964630908706
 167     0.012837909118433
 168    -0.089055711542658
 169      0.18467904157405
 170      0.10715447199083
 171     0.054358701010696
 172      0.04755537623497
 173       0.0237538936021
 174      0.11108994890459
 175      0.10205353164013
 176     0.048392395989782
 177      0.15804190601065
 178      0.14553975489924
 179     0.071863758669748
 180    -0.0026636979881825
 181    0.0034634152215873
 182    0.0077609639319538
 183    -0.0083194547594768
 184     0.006486743718487
 Sym= A
 Ene=               1
 Spin= Alpha
 Occup=    1.00000
   1    -0.0075433716187808
   2     0.020187814394315
   3     -0.11073349320121
   4    -0.039233358996881
   5    0.0041137276939117
   6    -0.045973717277446
   7    0.0074020523157299
   8     0.020265806473406
   9      0.15475430133895
  10    -0.024489241047636
  11    -0.067066165717338
  12      0.04880565421903
  13    -0.011520078326249
  14    -0.016085934429458
  15    -0.015615664559757
  16       -0.039982384998
  17     0.029060163878191
  18    0.0093518572940609
  19    -0.012648337462149
  20    -0.011210909721645
  21    -0.030441709884431
  22     0.017954217564661
  23    0.0053491327679147
  24    -0.0089120806982165
  25    -0.0015165482681279
  26    0.00020366568108407
  27    0.00070811891538555
  28    0.0019552079263443
  29    0.00061922590696345
  30      0.00152484952582
  31    -0.00020013570810095
  32     -0.11992767873959
  33     -0.40128156300164
  34     -0.29501558996466
  35    5.658173716396e-16
  36    -3.450353911707e-16
  37     0.080321169076633
  38    5.6656293035222e-16
  39    -3.3781877594872e-16
  40     0.072669776015557
  41    0.0060010555486697
  42    1.8770792324159e-17
  43    -6.5197302371674e-18
  44    -0.009482688022674
  45    -0.00012161735547566
  46    -0.0075433716187808
  47     0.020187814394315
  48      -0.1107334932012
  49    -0.039233358996882
  50    0.0041137276939114
  51     0.045973717277445
  52    -0.0074020523157301
  53     0.020265806473407
  54     -0.15475430133894
  55     0.024489241047637
  56    -0.067066165717339
  57     -0.04880565421903
  58      0.01152007832625
  59    -0.016085934429458
  60    -0.015615664559756
  61     0.039982384998001
  62    -0.029060163878191
  63    0.0093518572940606
  64    -0.012648337462149
  65    -0.011210909721644
  66     0.030441709884431
  67    -0.017954217564661
  68    0.0053491327679145
  69    -0.0089120806982167
  70    -0.0015165482681279
  71    -0.00020366568108406
  72    -0.00070811891538555
  73    0.0019552079263443
  74    0.00061922590696346
  75     -0.00152484952582
  76    0.00020013570810095
  77    -0.0075073025050493
  78     0.051419473136978
  79     -0.10020073978062
  80    -0.060867606390312
  81      0.04207985229663
  82    -0.027043782107264
  83     0.026448682942164
  84     0.082018208366879
  85    -0.053889777473722
  86     0.053860836082583
  87      0.11938658647301
  88    -0.080135602868105
  89      0.07757107581911
  90    -0.0041963262938771
  91    -0.0037819020929448
  92    0.0074361568015144
  93    0.0027968779274459
  94    0.0022096896047833
  95    0.0063873554699971
  96    -0.045504861581702
  97      0.10750256382623
  98     0.060395429308845
  99    -0.0021316198069231
 100     0.020207794790655
 101     0.027585868124223
 102    -0.011704658085063
 103      0.04557793191409
 104     0.062784973497953
 105    -0.011709786558382
 106      0.06477719772759
 107     0.088662138951236
 108     0.003182984068568
 109    -0.0037081087625087
 110    0.0048864898196951
 111    -0.0011792763180042
 112    -0.0020952326131747
 113    -0.0013669634497236
 114    0.0086945413540546
 115    -0.010994921105138
 116    -0.0047403357855732
 117      0.02921926640661
 118    -0.001372558673559
 119    -0.012845757152921
 120     0.056525715115777
 121    -0.0067056620071609
 122    -0.024087084162505
 123     0.081506100178436
 124    -0.010320449223549
 125    -0.035781096568147
 126    -0.00023447014297539
 127    0.0010800873854259
 128     0.001741229728895
 129    -0.00072904948254752
 130    -0.0035229735666996
 131    -0.0075073025050493
 132     0.051419473136978
 133     -0.10020073978062
 134    -0.060867606390312
 135     -0.04207985229663
 136     0.027043782107264
 137     0.026448682942164
 138    -0.082018208366878
 139     0.053889777473722
 140     0.053860836082583
 141     -0.11938658647301
 142     0.080135602868106
 143      0.07757107581911
 144    -0.0041963262938771
 145    0.0037819020929448
 146    -0.0074361568015144
 147    0.0027968779274459
 148    0.0022096896047832
 149    0.0063873554699972
 150    -0.045504861581702
 151      0.10750256382623
 152     0.060395429308846
 153    0.0021316198069236
 154    -0.020207794790655
 155     0.027585868124223
 156     0.011704658085064
 157     -0.04557793191409
 158     0.062784973497953
 159     0.011709786558384
 160     -0.06477719772759
 161     0.088662138951235
 162     0.003182984068568
 163    0.0037081087625088
 164    -0.0048864898196951
 165    -0.0011792763180042
 166    -0.0020952326131748
 167    -0.0013669634497237
 168    0.0086945413540548
 169    -0.010994921105139
 170    -0.0047403357855734
 171     -0.02921926640661
 172    0.0013725586735588
 173    -0.012845757152921
 174    -0.056525715115777
 175    0.0067056620071604
 176    -0.024087084162506
 177    -0.081506100178436
 178     0.010320449223548
 179    -0.035781096568148
 180    -0.00023447014297539
 181    -0.0010800873854259
 182    -0.001741229728895
 183    -0.00072904948254748
 184    -0.0035229735666996
 Sym= A
 Ene=               2
 Spin= Alpha
 Occup=    1.00000
   1     -0.01541482154299
   2     0.041031448259894
   3     -0.22800115587661
   4     0.034046431691952
   5      0.05221007429428
   6    -0.098252597269428
   7    -0.029284455472152
   8    -0.046284511448195
   9      0.33129655323709
  10     0.097274058720109
  11      0.15509751518415
  12     0.026803918766254
  13     0.027829746540992
  14     0.045088763365332
  15    -0.036881181126048
  16     0.055509455303079
  17    -0.0091929003712495
  18     0.054175500983629
  19     0.028494794100014
  20    -0.018192970884479
  21      0.02695251160384
  22    -0.0072882634886008
  23      0.02300953544129
  24     0.019310042129016
  25     0.001260979552218
  26    0.0002184749735716
  27    0.00016806902378405
  28    -0.0014495138760755
  29    -0.0011176436770145
  30    -0.0018283978688363
  31    -0.00055741695858903
  32    4.5978159157856e-16
  33    1.5678325898999e-15
  34    1.1321126439797e-15
  35      0.16095337377126
  36    -0.055945547071827
  37    -2.8284490978664e-16
  38      0.16198373893277
  39    -0.056709797804263
  40    -2.570711160771e-16
  41    -2.221449121717e-17
  42    0.0053498068961295
  43    -0.0010281066612939
  44    3.5872630214545e-17
  45    1.2421768895064e-20
  46      0.01541482154299
  47    -0.041031448259895
  48      0.22800115587661
  49    -0.034046431691952
  50     -0.05221007429428
  51    -0.098252597269428
  52    -0.029284455472152
  53     0.046284511448195
  54      0.33129655323709
  55     0.097274058720109
  56     -0.15509751518415
  57     0.026803918766255
  58     0.027829746540992
  59    -0.045088763365332
  60     0.036881181126048
  61     0.055509455303078
  62    -0.0091929003712494
  63    -0.054175500983629
  64    -0.028494794100014
  65     0.018192970884479
  66      0.02695251160384
  67    -0.0072882634886007
  68     -0.02300953544129
  69    -0.019310042129016
  70    -0.001260979552218
  71    0.0002184749735716
  72    0.00016806902378406
  73    0.0014495138760755
  74    0.0011176436770145
  75    -0.0018283978688363
  76    -0.00055741695858904
  77    0.0012482915870819
  78    -0.009763473747389
  79     0.034153712171049
  80    -0.0032856460553194
  81     0.050990960256014
  82     0.030875895089026
  83     0.007974293551567
  84      0.10125736254991
  85     0.064925481679592
  86    0.0080615181079345
  87      0.14896280601938
  88     0.090120385970237
  89     0.021606843588595
  90    -0.00088159470319215
  91    -0.0037987010430903
  92    -0.0037545651475851
  93    -0.0018681022588464
  94    0.0027725529856325
  95    -0.0055883038936876
  96     0.037561005216021
  97    -0.065504776561779
  98    -0.048534517677877
  99     0.074438140639758
 100    0.0068058971696183
 101     0.011590888718472
 102      0.14539124999304
 103     0.014737997161565
 104     0.024775702381631
 105      0.21243011242385
 106      0.02362089883593
 107     0.038871602156998
 108    0.0018289357180479
 109    0.0060266574519998
 110    0.00078735182153785
 111    -0.0032565018901559
 112    0.0030485910838498
 113    0.0036334666495915
 114    -0.026384110173354
 115     0.067961077934628
 116     0.023808096789176
 117     0.038351618863955
 118    -0.021819198233412
 119     0.038445944230742
 120     0.072484409263262
 121    -0.052476303574632
 122     0.077717606743597
 123      0.11270666341244
 124    -0.072989394802679
 125      0.11358361026568
 126    -0.0005929500686925
 127    0.00024876044035768
 128    -0.006131443512561
 129    -0.0045730796390762
 130    -0.0011825113675723
 131    -0.001248291587082
 132    0.0097634737473887
 133    -0.034153712171048
 134    0.0032856460553197
 135     0.050990960256014
 136     0.030875895089026
 137    -0.0079742935515672
 138      0.10125736254991
 139     0.064925481679592
 140    -0.0080615181079348
 141      0.14896280601938
 142     0.090120385970237
 143    -0.021606843588595
 144    0.00088159470319218
 145    -0.0037987010430903
 146    -0.0037545651475851
 147    0.0018681022588464
 148    -0.0027725529856325
 149    0.0055883038936876
 150    -0.037561005216021
 151     0.065504776561778
 152     0.048534517677877
 153     0.074438140639758
 154    0.0068058971696185
 155    -0.011590888718472
 156      0.14539124999304
 157     0.014737997161565
 158    -0.024775702381631
 159      0.21243011242385
 160     0.023620898835931
 161    -0.038871602156999
 162    -0.001828935718048
 163    0.0060266574519997
 164    0.0007873518215379
 165    0.0032565018901559
 166    -0.0030485910838498
 167    -0.0036334666495915
 168     0.026384110173354
 169    -0.067961077934628
 170    -0.023808096789176
 171     0.038351618863955
 172    -0.021819198233412
 173    -0.038445944230742
 174     0.072484409263262
 175    -0.052476303574633
 176    -0.077717606743597
 177      0.11270666341244
 178     -0.07298939480268
 179     -0.11358361026568
 180    0.00059295006869251
 181    0.00024876044035769
 182    -0.006131443512561
 183    0.0045730796390762
 184    0.0011825113675723
 Sym= A
 Ene=               3
 Spin= Alpha
 Occup=    1.00000
   1    -0.0063954041657069
   2     0.017607851880501
   3    -0.091634091088038
   4     0.012512214057344
   5    -0.0038783084846818
   6    -0.025391284559476
   7     0.054946508534478
   8     0.053322221933418
   9     0.084645646817092
  10      -0.1773841275786
  11     -0.17185541937595
  12    -0.013929213510709
  13     0.011528676965312
  14     0.017780142248937
  15    -0.022836651290839
  16     0.032871264732491
  17    -0.075076665614591
  18    -0.038388388019472
  19     0.035714569882619
  20    -0.015121689160733
  21     0.020162225665911
  22    -0.048964699715289
  23     -0.02398689246446
  24     0.022440434092125
  25    -0.00030401324553604
  26    -0.00050212696192003
  27    -0.00043507379714894
  28    0.00029087363108015
  29    -0.0015377093725496
  30    -0.00075656777726379
  31    0.00063411337684924
  32    1.3558916482975e-16
  33    2.4240464994177e-16
  34    2.3981676166522e-16
  35    0.0049224687925566
  36     0.011849791179967
  37    -4.0077093074359e-17
  38     0.002078828584412
  39     0.011303441538692
  40    -2.968972796733e-17
  41    -1.6731907599538e-18
  42    0.00033789231422261
  43    -0.0005444601310387
  44    6.9457472533057e-18
  45    -3.1631456211989e-18
  46     0.006395404165707
  47    -0.017607851880502
  48     0.091634091088039
  49    -0.012512214057344
  50    0.0038783084846819
  51    -0.025391284559476
  52     0.054946508534479
  53    -0.053322221933418
  54     0.084645646817092
  55      -0.1773841275786
  56      0.17185541937595
  57    -0.013929213510709
  58     0.011528676965313
  59    -0.017780142248937
  60     0.022836651290839
  61     0.032871264732491
  62    -0.075076665614592
  63     0.038388388019473
  64    -0.035714569882619
  65     0.015121689160733
  66     0.020162225665911
  67     -0.04896469971529
  68      0.02398689246446
  69    -0.022440434092125
  70    0.00030401324553604
  71    -0.00050212696192004
  72    -0.00043507379714895
  73    -0.00029087363108016
  74    0.0015377093725496
  75    -0.0007565677772638
  76    0.00063411337684924
  77    0.0011776999003794
  78    -0.0043795746358597
  79    -0.019117545499418
  80    -0.018209983595125
  81    0.0055815728291038
  82    -0.048592661725299
  83    -0.088086135436131
  84     0.014144807275837
  85     -0.09400173436167
  86     -0.14463604000787
  87     0.021184692174057
  88      -0.1473818950644
  89      -0.2133670378882
  90    0.0087630314359681
  91    0.00025434789826719
  92    -0.0009631932292522
  93    0.0021310106303247
  94    0.00049912990243522
  95    -0.0020707899842551
  96    0.0063237039657245
  97      0.04782893947655
  98      0.05198832404129
  99     0.055798660396075
 100    -0.062409858431534
 101    -0.074544306509346
 102     0.077273311050509
 103    -0.096013359845416
 104     -0.10668205478884
 105      0.11400381576995
 106     -0.14232119687761
 107     -0.15668935148766
 108    -0.0038782431913593
 109    0.0072082737210695
 110    -0.0064910396357814
 111    -0.0031890654660623
 112    0.0042603605914161
 113    0.0016447292633715
 114    -0.0062627356905771
 115    -0.024387311288918
 116    -0.024396844849184
 117    -0.013143897793522
 118     -0.09468075840059
 119     -0.03687577474651
 120    -0.013331443421139
 121     -0.14894592496088
 122    -0.072144134758195
 123     -0.01733280933126
 124      -0.2253512272943
 125     -0.11262104923545
 126    -0.0051116771340634
 127    0.00018060141345714
 128    -0.0027578799154018
 129    -0.0058549952346196
 130     0.004514852575534
 131    -0.0011776999003795
 132    0.0043795746358599
 133     0.019117545499418
 134     0.018209983595125
 135    0.0055815728291038
 136    -0.048592661725299
 137     0.088086135436132
 138     0.014144807275837
 139    -0.094001734361671
 140      0.14463604000787
 141     0.021184692174057
 142      -0.1473818950644
 143       0.2133670378882
 144    -0.0087630314359682
 145    0.00025434789826721
 146    -0.00096319322925221
 147    -0.0021310106303247
 148    -0.00049912990243522
 149    0.0020707899842551
 150    -0.0063237039657248
 151     -0.04782893947655
 152    -0.051988324041291
 153     0.055798660396075
 154    -0.062409858431535
 155     0.074544306509346
 156      0.07727331105051
 157    -0.096013359845417
 158      0.10668205478884
 159      0.11400381576995
 160     -0.14232119687761
 161      0.15668935148767
 162    0.0038782431913593
 163    0.0072082737210696
 164    -0.0064910396357814
 165    0.0031890654660623
 166    -0.0042603605914162
 167    -0.001644729263372
 168    0.0062627356905773
 169     0.024387311288918
 170     0.024396844849184
 171    -0.013143897793522
 172    -0.094680758400591
 173     0.036875774746511
 174     -0.01333144342114
 175     -0.14894592496088
 176     0.072144134758195
 177    -0.017332809331261
 178      -0.2253512272943
 179      0.11262104923545
 180    0.0051116771340635
 181    0.00018060141345714
 182    -0.0027578799154019
 183    0.0058549952346197
 184    -0.004514852575534
 Sym= A
 Ene=               4
 Spin= Alpha
 Occup=    1.00000
   1    0.0036470455143915
   2    -0.010090358332721
   3     0.052168416460616
   4    -0.017622485384803
   5     0.010847879296019