[Molden Format]
made by pyscf v[2.1.1]
[Atoms] (AU)
Fe   1   26     3.17068844873907     0.00098706064664     0.12237737881307
O   2   8     0.00000000000000     0.00000000000000    -0.89004350580623
Fe   3   26    -3.17068844873907    -0.00098706064664     0.12237737881307
Cl   4   17     3.53383895113107    -2.07485195383062     3.76228752659000
Cl   5   17     5.54152580550813    -1.85590924879884    -2.78672786652360
Cl   6   17     4.48169216485503     3.92976278472880    -0.95330240907949
Cl   7   17    -3.53383895113107     2.07485195383062     3.76228752659000
Cl   8   17    -5.54152580550813     1.85590924879884    -2.78672786652360
Cl   9   17    -4.48169216485503    -3.92976278472880    -0.95330240907949
[GTO]
1 0
 s    6 1.00
          60923.640643  0.0017552243692958
          9147.8893982   0.013449023284001
          2081.3505927   0.066678874640978
          587.55977067    0.23176348548844
           191.0904399    0.46945550248188
          65.732730112     0.3596824938678
 s    3 1.00
          127.25891928   -0.10723431835929
           14.83091301    0.62971616328466
          6.0653307408    0.44472317896179
 s    3 1.00
           10.44994371   -0.21694289195548
          1.7245228003    0.69457867408393
         0.71772177325    0.43298308896347
 s    1 1.00
        0.091449828308                   1
 s    1 1.00
        0.033706691021                   1
 p    5 1.00
          773.43750995  0.0091440529992506
          182.15149714   0.067887577136571
          57.547272758    0.26167978878504
          20.614988935    0.51088040113251
           7.634855789    0.33235475570224
 p    3 1.00
           3.871932799    0.33193859098144
          1.4924724132     0.5553666555499
         0.56061284958    0.23106034201617
 p    1 1.00
              0.134915                   1
 d    4 1.00
          38.968133419   0.033335938558743
          10.800067078    0.17766212505983
          3.6136457999      0.441281781625
          1.2129967888    0.57089200490673
 d    1 1.00
          0.3652439317                   1
 f    1 1.00
                 1.598                   1

2 0
 s    5 1.00
          2266.1767785  -0.0053893503921743
          340.87010191   -0.04023472138896
          77.363135167   -0.18008184205526
           21.47964494   -0.46828857657651
          6.6589433124   -0.44692617160187
 s    1 1.00
         0.80975975668                   1
 s    1 1.00
         0.25530772234                   1
 p    3 1.00
          17.721504317   0.062630248763161
           3.863550544    0.33331138482352
          1.0480920883    0.74148638308122
 p    1 1.00
         0.27641544411                   1
 d    1 1.00
                   1.2                   1

3 0
 s    6 1.00
          60923.640643  0.0017552243692958
          9147.8893982   0.013449023284001
          2081.3505927   0.066678874640978
          587.55977067    0.23176348548844
           191.0904399    0.46945550248188
          65.732730112     0.3596824938678
 s    3 1.00
          127.25891928   -0.10723431835929
           14.83091301    0.62971616328466
          6.0653307408    0.44472317896179
 s    3 1.00
           10.44994371   -0.21694289195548
          1.7245228003    0.69457867408393
         0.71772177325    0.43298308896347
 s    1 1.00
        0.091449828308                   1
 s    1 1.00
        0.033706691021                   1
 p    5 1.00
          773.43750995  0.0091440529992506
          182.15149714   0.067887577136571
          57.547272758    0.26167978878504
          20.614988935    0.51088040113251
           7.634855789    0.33235475570224
 p    3 1.00
           3.871932799    0.33193859098144
          1.4924724132     0.5553666555499
         0.56061284958    0.23106034201617
 p    1 1.00
              0.134915                   1
 d    4 1.00
          38.968133419   0.033335938558743
          10.800067078    0.17766212505983
          3.6136457999      0.441281781625
          1.2129967888    0.57089200490673
 d    1 1.00
          0.3652439317                   1
 f    1 1.00
                 1.598                   1

4 0
 s    5 1.00
          10449.827566  0.0054265953789407
          1571.7365221   0.040626378128836
          357.12065523    0.18359747852877
          100.25185935    0.47438948768198
          30.812727554    0.43735181104122
 s    3 1.00
          51.923789434  -0.092754154848099
          5.7045760975    0.56380825544207
          2.3508376809    0.50367044629712
 s    1 1.00
         0.44605124672                   1
 s    1 1.00
          0.1684885619                   1
 p    5 1.00
          307.66790569  -0.0088797025588865
          72.102015515  -0.064284071721237
          22.532680262   -0.24288739736006
          7.8991765444   -0.48340836369878
          2.8767268321   -0.38952563875509
 p    1 1.00
         0.77459363955                   1
 p    1 1.00
         0.21037699698                   1
 d    1 1.00
                  0.65                   1

5 0
 s    5 1.00
          10449.827566  0.0054265953789407
          1571.7365221   0.040626378128836
          357.12065523    0.18359747852877
          100.25185935    0.47438948768198
          30.812727554    0.43735181104122
 s    3 1.00
          51.923789434  -0.092754154848099
          5.7045760975    0.56380825544207
          2.3508376809    0.50367044629712
 s    1 1.00
         0.44605124672                   1
 s    1 1.00
          0.1684885619                   1
 p    5 1.00
          307.66790569  -0.0088797025588865
          72.102015515  -0.064284071721237
          22.532680262   -0.24288739736006
          7.8991765444   -0.48340836369878
          2.8767268321   -0.38952563875509
 p    1 1.00
         0.77459363955                   1
 p    1 1.00
         0.21037699698                   1
 d    1 1.00
                  0.65                   1

6 0
 s    5 1.00
          10449.827566  0.0054265953789407
          1571.7365221   0.040626378128836
          357.12065523    0.18359747852877
          100.25185935    0.47438948768198
          30.812727554    0.43735181104122
 s    3 1.00
          51.923789434  -0.092754154848099
          5.7045760975    0.56380825544207
          2.3508376809    0.50367044629712
 s    1 1.00
         0.44605124672                   1
 s    1 1.00
          0.1684885619                   1
 p    5 1.00
          307.66790569  -0.0088797025588865
          72.102015515  -0.064284071721237
          22.532680262   -0.24288739736006
          7.8991765444   -0.48340836369878
          2.8767268321   -0.38952563875509
 p    1 1.00
         0.77459363955                   1
 p    1 1.00
         0.21037699698                   1
 d    1 1.00
                  0.65                   1

7 0
 s    5 1.00
          10449.827566  0.0054265953789407
          1571.7365221   0.040626378128836
          357.12065523    0.18359747852877
          100.25185935    0.47438948768198
          30.812727554    0.43735181104122
 s    3 1.00
          51.923789434  -0.092754154848099
          5.7045760975    0.56380825544207
          2.3508376809    0.50367044629712
 s    1 1.00
         0.44605124672                   1
 s    1 1.00
          0.1684885619                   1
 p    5 1.00
          307.66790569  -0.0088797025588865
          72.102015515  -0.064284071721237
          22.532680262   -0.24288739736006
          7.8991765444   -0.48340836369878
          2.8767268321   -0.38952563875509
 p    1 1.00
         0.77459363955                   1
 p    1 1.00
         0.21037699698                   1
 d    1 1.00
                  0.65                   1

8 0
 s    5 1.00
          10449.827566  0.0054265953789407
          1571.7365221   0.040626378128836
          357.12065523    0.18359747852877
          100.25185935    0.47438948768198
          30.812727554    0.43735181104122
 s    3 1.00
          51.923789434  -0.092754154848099
          5.7045760975    0.56380825544207
          2.3508376809    0.50367044629712
 s    1 1.00
         0.44605124672                   1
 s    1 1.00
          0.1684885619                   1
 p    5 1.00
          307.66790569  -0.0088797025588865
          72.102015515  -0.064284071721237
          22.532680262   -0.24288739736006
          7.8991765444   -0.48340836369878
          2.8767268321   -0.38952563875509
 p    1 1.00
         0.77459363955                   1
 p    1 1.00
         0.21037699698                   1
 d    1 1.00
                  0.65                   1

9 0
 s    5 1.00
          10449.827566  0.0054265953789407
          1571.7365221   0.040626378128836
          357.12065523    0.18359747852877
          100.25185935    0.47438948768198
          30.812727554    0.43735181104122
 s    3 1.00
          51.923789434  -0.092754154848099
          5.7045760975    0.56380825544207
          2.3508376809    0.50367044629712
 s    1 1.00
         0.44605124672                   1
 s    1 1.00
          0.1684885619                   1
 p    5 1.00
          307.66790569  -0.0088797025588865
          72.102015515  -0.064284071721237
          22.532680262   -0.24288739736006
          7.8991765444   -0.48340836369878
          2.8767268321   -0.38952563875509
 p    1 1.00
         0.77459363955                   1
 p    1 1.00
         0.21037699698                   1
 d    1 1.00
                  0.65                   1

[5d]
[7f]
[9g]

[MO]
 Sym= A
 Ene=               0
 Spin= Alpha
 Occup=    1.00000
   1    0.0017391258109709
   2    -0.0051586931891195
   3     0.023596120224967
   4    -0.061774767277923
   5     0.033240254097685
   6    0.0039776466347697
   7    0.0040972727404892
   8    -0.010973960967815
   9    -0.013252020499782
  10    -0.013851681117907
  11     0.035622343977875
  12     0.062800920531249
  13    -0.0065460558450918
  14    -0.076643012748526
  15     0.077312139459739
  16     0.057440637567883
  17    -0.011173403815952
  18    -0.076323829774317
  19    0.00053022369162757
  20     0.043450838265469
  21     0.042739101638812
  22    -0.0038963596618053
  23    -0.040162289182084
  24    -0.00058022819154788
  25    0.00066555858632782
  26    -0.0037147335249004
  27    -0.0002443070492088
  28    -0.0013384366077965
  29    -9.4569347564491e-06
  30    0.0028598164955289
  31    8.3780761873551e-05
  32    -0.015476606645177
  33    -0.050351286058317
  34    -0.036235300994279
  35    -6.2888932885145e-16
  36    -9.7054514742456e-16
  37     -0.53842133815904
  38    -6.4445965233251e-16
  39    -6.474413497706e-16
  40     -0.46446798291509
  41    -0.011023360935949
  42    -1.6358289957435e-17
  43    -1.713953925856e-17
  44    -0.0031487188940996
  45    -0.00022854410463925
  46    0.0017391258109709
  47    -0.0051586931891195
  48     0.023596120224967
  49    -0.061774767277923
  50     0.033240254097684
  51    -0.0039776466347695
  52    -0.0040972727404894
  53    -0.010973960967815
  54     0.013252020499782
  55     0.013851681117907
  56     0.035622343977874
  57    -0.062800920531249
  58    0.0065460558450915
  59    -0.076643012748526
  60     0.077312139459739
  61    -0.057440637567883
  62     0.011173403815953
  63    -0.076323829774317
  64    0.00053022369162693
  65     0.043450838265469
  66    -0.042739101638812
  67    0.0038963596618056
  68    -0.040162289182084
  69    -0.0005802281915482
  70    0.00066555858632783
  71    0.0037147335249004
  72    0.0002443070492088
  73    -0.0013384366077965
  74    -9.4569347564414e-06
  75    -0.0028598164955289
  76    -8.378076187356e-05
  77    0.0021985933675447
  78      -0.0149635099259
  79      0.02946309944145
  80     0.021524633115286
  81    -0.0038715660716988
  82    0.0062468845233029
  83    -0.012302435832477
  84    -0.0065582120915466
  85     0.010735587405713
  86    -0.023575874904995
  87    -0.0099027814055512
  88     0.026335165575189
  89    -0.042380870462609
  90    0.0018877141450613
  91    -0.0031454866181257
  92    -0.0014379998735829
  93    -0.0023608828797425
  94    0.0018425017712546
  95    -0.00013188917061197
  96    0.00032217090436966
  97    0.0083798856298652
  98    -0.024266238699573
  99    0.0072788589220022
 100    -0.0023458283816666
 101    0.0055120572984519
 102     0.012612313845799
 103    -0.0027848172314175
 104     0.012658444573619
 105     0.024251363211071
 106    -0.014549544108941
 107    0.0094064233773722
 108    -0.0011701569995442
 109    0.00085990504675082
 110    -0.0015951845965585
 111    0.0019232635058049
 112    -0.00017383229808464
 113    -0.0011572364372192
 114    0.0079896717559806
 115    -0.012909331874005
 116    -0.025308809074384
 117    0.0061377379373771
 118    0.0025456009130089
 119    0.0040899900063432
 120     0.013313253432489
 121    0.0055350612126274
 122    0.0064672634277647
 123      0.01648450682101
 124     0.017233531428971
 125     0.013406440012719
 126    0.00098292252380289
 127    0.0015254135224603
 128    0.0013105810700847
 129    0.0015079082417769
 130    -0.00031753456345376
 131    0.0021985933675447
 132    -0.014963509925899
 133     0.029463099441449
 134     0.021524633115286
 135    0.0038715660716987
 136    -0.0062468845233027
 137    -0.012302435832477
 138    0.0065582120915464
 139    -0.010735587405713
 140    -0.023575874904994
 141     0.009902781405551
 142    -0.026335165575189
 143    -0.042380870462609
 144    0.0018877141450613
 145    0.0031454866181257
 146    0.0014379998735828
 147    -0.0023608828797425
 148    0.0018425017712546
 149    -0.00013188917061192
 150    0.00032217090436926
 151     0.008379885629866
 152    -0.024266238699572
 153    -0.007278858922002
 154    0.0023458283816665
 155     0.005512057298452
 156    -0.012612313845798
 157    0.0027848172314172
 158      0.01265844457362
 159    -0.024251363211071
 160     0.014549544108941
 161    0.0094064233773727
 162    -0.0011701569995442
 163    -0.00085990504675079
 164    0.0015951845965585
 165    0.0019232635058049
 166    -0.00017383229808467
 167    -0.0011572364372192
 168    0.0079896717559804
 169    -0.012909331874005
 170    -0.025308809074384
 171    -0.0061377379373771
 172    -0.0025456009130088
 173    0.0040899900063432
 174    -0.013313253432489
 175    -0.0055350612126272
 176    0.0064672634277645
 177     -0.01648450682101
 178    -0.017233531428971
 179     0.013406440012719
 180    0.00098292252380286
 181    -0.0015254135224603
 182    -0.0013105810700847
 183    0.0015079082417768
 184    -0.00031753456345374
 Sym= A
 Ene=               1
 Spin= Alpha
 Occup=    1.00000
   1    -0.001616993680259
   2    -0.0059985529863947
   3     0.021087300148165
   4     -0.17360742634925
   5     0.093941120583186
   6     0.067499535242552
   7    -0.036500249249512
   8     -0.23494864328902
   9      -0.2824456714582
  10     -0.14025697326015
  11      0.76552556269162
  12     0.063523235499171
  13     -0.11225667349386
  14      0.41718682560306
  15    -0.022849761463258
  16       1.0919718569742
  17       1.3444411205249
  18     -0.89808501037404
  19     -0.18226249164601
  20     0.085534971527646
  21      0.39515027622415
  22       0.2796218030509
  23     -0.31213324835052
  24    -0.011038746123587
  25    -0.0024531304863189
  26    -0.0073003536650521
  27    -0.00017862014257289
  28    0.00068461073113906
  29    -0.0016665784988839
  30    0.0078487998706744
  31    0.0021776150807078
  32     -0.18184976236087
  33     -0.81083686215263
  34     -0.40279449400519
  35     -0.16647803869289
  36      0.33101143917977
  37     -0.59246983608219
  38     -0.22404417125408
  39      0.24821652011938
  40     -0.52334704717687
  41    -0.006281742947785
  42    -0.0077362455770221
  43     0.018439048944972
  44    -0.016054297143261
  45    -0.00048034049986169
  46    0.0041864853226195
  47    -0.0098413950774982
  48      0.11663933260274
  49      0.33833204024371
  50    -0.077830778011968
  51      0.14332610922948
  52     0.059665055080976
  53     0.025356762181061
  54     -0.52419629793376
  55     -0.24019125563857
  56     -0.21601065711959
  57     -0.25233533246295
  58     -0.16147407153546
  59    -0.020567335409042
  60    -0.044063515659285
  61     -0.30021772323717
  62    -0.023132974050595
  63     -0.18093291973945
  64     0.013829975490006
  65     0.014434332739554
  66    -0.085991914628653
  67    -0.023976687491873
  68    -0.097780195818838
  69     0.027646784615978
  70    0.00025357481838681
  71    0.0022540367134039
  72    0.00067968335386878
  73    -0.00097225760574066
  74    -0.00070318485056439
  75    -0.00071202941149955
  76    0.0045113131873768
  77     0.067741455131127
  78     -0.40774440618268
  79      0.93506799442987
  80      0.51416114974078
  81    -0.091257873800317
  82      0.27003476721299
  83     -0.23451159215126
  84     -0.20181197739109
  85      0.47936934996463
  86     -0.53061219509394
  87     -0.28658596842944
  88      0.76045521766398
  89     -0.76757451725831
  90     0.035168398349701
  91    -0.0019033964027748
  92    -0.060020773719771
  93    -0.024331520762329
  94    -0.00020976284371171
  95    -0.055575510880105
  96      0.40404594429044
  97     -0.88249724368005
  98      -0.4611064785013
  99      0.27326745608744
 100     -0.12701295603975
 101     -0.13038954308323
 102      0.52505505218259
 103     -0.33427731241741
 104     -0.28540227744796
 105      0.84597999827459
 106     -0.38802564791005
 107     -0.36250222376221
 108    -0.0049232999565217
 109     0.034363609168164
 110    -0.042540529468249
 111    0.0041530060445431
 112       0.0324720280345
 113    -0.030211249216745
 114      0.13357341864316
 115     -0.45487900578617
 116     -0.15948987957718
 117     0.058529576282329
 118     0.062991594962155
 119     0.069483666550379
 120     0.079727366602239
 121      0.26987952164262
 122      0.17519530636692
 123      0.11100815809907
 124      0.28855360211407
 125      0.21017049276432
 126     0.021419506918356
 127    0.00021758264722368
 128    -0.0074342448675923
 129     0.028903677598333
 130    -0.010267150399216
 131    -0.0018468161245896
 132     0.023980537137178
 133    -0.039046073028858
 134    0.00097102089725574
 135    -0.068061099595348
 136     0.015158306901229
 137    0.00036925960935209
 138     -0.16332810543389
 139     0.038416773784578
 140     0.046090863408194
 141     -0.20475289217841
 142     -0.13162100520247
 143     0.016092041174904
 144    0.0084445439381461
 145     0.007708197757989
 146    0.0040726843255372
 147    -0.00037440486168965
 148    0.0066504052912584
 149     0.028773126490574
 150     -0.23585240550813
 151      0.40288458506895
 152      0.19583168926212
 153     -0.09170397291621
 154     -0.11315885189071
 155     0.098579163393585
 156    -0.001464824817076
 157     -0.21915245887978
 158        0.264556743846
 159     -0.04525359443813
 160     -0.31578792680215
 161      0.33434267459461
 162    0.0091237449635851
 163     0.017905081974917
 164    -0.019747615283245
 165     0.003705315792157
 166    -0.013878504177546
 167     0.010281805705264
 168     -0.23200874019628
 169      0.18932079221932
 170      0.17403803164737
 171    -0.044187138202239
 172      0.14354430926593
 173     0.054723294675851
 174    -0.069876015348127
 175      0.32872464990743
 176      0.12000813588503
 177    -0.079288734557154
 178      0.42960618398627
 179       0.1157331753432
 180    -0.013274224638288
 181    -0.0016382169590584
 182     0.025103357377508
 183    -0.025965305121444
 184    0.0042606082773661
 Sym= A
 Ene=               2
 Spin= Alpha
 Occup=    1.00000
   1    -0.0016607021618095
   2    0.0035618545015067
   3    -0.030719673731739
   4    -0.089150814252326
   5     0.028620014660453
   6    -0.031505859660963
   7    0.0054917227921464
   8      0.02486731635869
   9      0.10963563086417
  10    -0.0088840570552397
  11    -0.080496191658492
  12     0.090096903746901
  13    -0.035963530658638
  14    -0.024553264245163
  15     0.036678785146817
  16     -0.15944261181539
  17    -0.069463525063565
  18    -0.036066121154637
  19     0.038356390943468
  20      0.01088906323517
  21    -0.069385664430375
  22    -0.0057045190520042
  23    -0.018603642136678
  24     0.019274250458553
  25    -0.0021576601031655
  26    -0.00048903175349792
  27    0.00026054556482282
  28    0.0031894238547236
  29    -0.00025509443572336
  30    0.0028986852781894
  31    -0.0016830827146813
  32     0.010744326265172
  33     0.042987465473375
  34     0.031581483671084
  35     -0.42265086315991
  36      -0.2116869639594
  37     0.038927755074582
  38      -0.3326236524303
  39      -0.1845049011423
  40     0.034180541210181
  41    0.00043628078654767
  42    -0.011251632875546
  43    -0.0050668493248118
  44     0.001241848004147
  45    6.3073980034767e-05
  46    0.0013244550107309
  47    -0.0020814034366895
  48     0.021318767327664
  49     0.080438311431786
  50    -0.029853962360881
  51    -0.038240251418834
  52    -0.0034459321222364
  53    -0.010484861820571
  54      0.12596647603152
  55     0.014705828529502
  56      0.02854815330896
  57      0.10804305147115
  58    -0.040302203736269
  59    -0.00034220468823433
  60    -0.032275984611323
  61    -0.066547556692932
  62     0.019322785548671
  63      0.10591220902147
  64    -0.029835024077895
  65    -0.017133643260975
  66    -0.038476747123195
  67     0.015280553908788
  68      0.04976140482435
  69     -0.02164919764112
  70    0.0022625229260405
  71    -0.0011064394186241
  72    0.00025568932146599
  73    -0.003225596692033
  74    0.00043591694128077
  75     0.003464249629413
  76    -0.001938283671257
  77    -0.0057144675247401
  78     0.035638905170958
  79      -0.0816466665804
  80    -0.045881804087207
  81     0.029160968220897
  82    -0.023134545632868
  83     0.015216807867051
  84     0.062343696789015
  85    -0.046182837949773
  86     0.035309998010751
  87      0.08305671180571
  88    -0.065506923409904
  89     0.051563493492196
  90    -0.0032534044411414
  91    -0.0016906799861289
  92    0.0061782662614482
  93    0.0025505905260739
  94    0.0012062850421738
  95    0.0076934681138719
  96    -0.058104289156052
  97      0.13583599453451
  98     0.056931651523677
  99    -0.012227833897634
 100     0.020739330289168
 101     0.033101894740001
 102    -0.030338789570879
 103     0.051289733446151
 104     0.077256278230311
 105    -0.039707181307913
 106     0.064852285566297
 107      0.09185101900798
 108    0.0034234380766815
 109    -0.0039533836781665
 110    0.0051722427211249
 111    -0.0018790886897147
 112    -0.0021420836611326
 113    0.0011653283255147
 114    -0.0044902626014841
 115      0.02078001348642
 116    0.0017835863490544
 117     0.015786525060745
 118    -0.012090781959246
 119    -0.0067364139469634
 120     0.030376254820893
 121    -0.025953514857221
 122    -0.011965037206503
 123     0.045163621184011
 124    -0.043729542746376
 125     -0.01276021213531
 126    0.00059119715293848
 127    0.00081208018569425
 128    0.00077883651298959
 129    -0.0038455913588627
 130    -0.0050961920003525
 131    0.0012406840683789
 132    -0.010722026597133
 133     0.022111705918719
 134     0.011652532887017
 135     0.028152484758093
 136    -0.0013657728600597
 137    -0.00060940924218276
 138     0.058926187141968
 139    -0.0035648123136909
 140    -0.0019998573391551
 141     0.078478907547773
 142    -0.0013393002300063
 143    -0.0041352822424221
 144    0.00049139967948468
 145    -0.0023618932779076
 146    0.0021028149762223
 147    -0.0010677402052781
 148    -0.001615505346342
 149    -0.0057961513737947
 150     0.048305054698102
 151    -0.096491539175954
 152    -0.034987356110924
 153    0.0095652558985476
 154     0.019859042095615
 155    -0.031516222930741
 156    0.00016637938774283
 157     0.043333689291307
 158    -0.075402229866349
 159      0.01272085493018
 160     0.059212704218446
 161    -0.088638253737939
 162    -0.0031934766061785
 163    -0.0018273111789546
 164    0.0036107023335696
 165    0.0019644164977537
 166    0.00065117614578508
 167    -0.00082392849654472
 168    0.0068578595770161
 169    -0.017305673544394
 170    -0.0079625530176566
 171     0.021094757986137
 172    -0.014588329630328
 173    -0.0016896001808653
 174     0.045257220178066
 175    -0.032323669411008
 176    -0.0023969855203525
 177     0.057833665856527
 178    -0.045856236345894
 179    -0.0087013846500555
 180    -0.00094026323116883
 181    0.00048225459072736
 182    -0.001050701177091
 183     0.003865130471393
 184    0.0053099651446205
