[Molden Format]
made by pyscf v[2.1.1]
[Atoms] (AU)
Fe   1   26     3.17068844873907     0.00098706064664     0.12237737881307
O   2   8     0.00000000000000     0.00000000000000    -0.89004350580623
Fe   3   26    -3.17068844873907    -0.00098706064664     0.12237737881307
Cl   4   17     3.53383895113107    -2.07485195383062     3.76228752659000
Cl   5   17     5.54152580550813    -1.85590924879884    -2.78672786652360
Cl   6   17     4.48169216485503     3.92976278472880    -0.95330240907949
Cl   7   17    -3.53383895113107     2.07485195383062     3.76228752659000
Cl   8   17    -5.54152580550813     1.85590924879884    -2.78672786652360
Cl   9   17    -4.48169216485503    -3.92976278472880    -0.95330240907949
[GTO]
1 0
 s    6 1.00
          60923.640643  0.0017552243692958
          9147.8893982   0.013449023284001
          2081.3505927   0.066678874640978
          587.55977067    0.23176348548844
           191.0904399    0.46945550248188
          65.732730112     0.3596824938678
 s    3 1.00
          127.25891928   -0.10723431835929
           14.83091301    0.62971616328466
          6.0653307408    0.44472317896179
 s    3 1.00
           10.44994371   -0.21694289195548
          1.7245228003    0.69457867408393
         0.71772177325    0.43298308896347
 s    1 1.00
        0.091449828308                   1
 s    1 1.00
        0.033706691021                   1
 p    5 1.00
          773.43750995  0.0091440529992506
          182.15149714   0.067887577136571
          57.547272758    0.26167978878504
          20.614988935    0.51088040113251
           7.634855789    0.33235475570224
 p    3 1.00
           3.871932799    0.33193859098144
          1.4924724132     0.5553666555499
         0.56061284958    0.23106034201617
 p    1 1.00
              0.134915                   1
 d    4 1.00
          38.968133419   0.033335938558743
          10.800067078    0.17766212505983
          3.6136457999      0.441281781625
          1.2129967888    0.57089200490673
 d    1 1.00
          0.3652439317                   1
 f    1 1.00
                 1.598                   1

2 0
 s    5 1.00
          2266.1767785  -0.0053893503921743
          340.87010191   -0.04023472138896
          77.363135167   -0.18008184205526
           21.47964494   -0.46828857657651
          6.6589433124   -0.44692617160187
 s    1 1.00
         0.80975975668                   1
 s    1 1.00
         0.25530772234                   1
 p    3 1.00
          17.721504317   0.062630248763161
           3.863550544    0.33331138482352
          1.0480920883    0.74148638308122
 p    1 1.00
         0.27641544411                   1
 d    1 1.00
                   1.2                   1

3 0
 s    6 1.00
          60923.640643  0.0017552243692958
          9147.8893982   0.013449023284001
          2081.3505927   0.066678874640978
          587.55977067    0.23176348548844
           191.0904399    0.46945550248188
          65.732730112     0.3596824938678
 s    3 1.00
          127.25891928   -0.10723431835929
           14.83091301    0.62971616328466
          6.0653307408    0.44472317896179
 s    3 1.00
           10.44994371   -0.21694289195548
          1.7245228003    0.69457867408393
         0.71772177325    0.43298308896347
 s    1 1.00
        0.091449828308                   1
 s    1 1.00
        0.033706691021                   1
 p    5 1.00
          773.43750995  0.0091440529992506
          182.15149714   0.067887577136571
          57.547272758    0.26167978878504
          20.614988935    0.51088040113251
           7.634855789    0.33235475570224
 p    3 1.00
           3.871932799    0.33193859098144
          1.4924724132     0.5553666555499
         0.56061284958    0.23106034201617
 p    1 1.00
              0.134915                   1
 d    4 1.00
          38.968133419   0.033335938558743
          10.800067078    0.17766212505983
          3.6136457999      0.441281781625
          1.2129967888    0.57089200490673
 d    1 1.00
          0.3652439317                   1
 f    1 1.00
                 1.598                   1

4 0
 s    5 1.00
          10449.827566  0.0054265953789407
          1571.7365221   0.040626378128836
          357.12065523    0.18359747852877
          100.25185935    0.47438948768198
          30.812727554    0.43735181104122
 s    3 1.00
          51.923789434  -0.092754154848099
          5.7045760975    0.56380825544207
          2.3508376809    0.50367044629712
 s    1 1.00
         0.44605124672                   1
 s    1 1.00
          0.1684885619                   1
 p    5 1.00
          307.66790569  -0.0088797025588865
          72.102015515  -0.064284071721237
          22.532680262   -0.24288739736006
          7.8991765444   -0.48340836369878
          2.8767268321   -0.38952563875509
 p    1 1.00
         0.77459363955                   1
 p    1 1.00
         0.21037699698                   1
 d    1 1.00
                  0.65                   1

5 0
 s    5 1.00
          10449.827566  0.0054265953789407
          1571.7365221   0.040626378128836
          357.12065523    0.18359747852877
          100.25185935    0.47438948768198
          30.812727554    0.43735181104122
 s    3 1.00
          51.923789434  -0.092754154848099
          5.7045760975    0.56380825544207
          2.3508376809    0.50367044629712
 s    1 1.00
         0.44605124672                   1
 s    1 1.00
          0.1684885619                   1
 p    5 1.00
          307.66790569  -0.0088797025588865
          72.102015515  -0.064284071721237
          22.532680262   -0.24288739736006
          7.8991765444   -0.48340836369878
          2.8767268321   -0.38952563875509
 p    1 1.00
         0.77459363955                   1
 p    1 1.00
         0.21037699698                   1
 d    1 1.00
                  0.65                   1

6 0
 s    5 1.00
          10449.827566  0.0054265953789407
          1571.7365221   0.040626378128836
          357.12065523    0.18359747852877
          100.25185935    0.47438948768198
          30.812727554    0.43735181104122
 s    3 1.00
          51.923789434  -0.092754154848099
          5.7045760975    0.56380825544207
          2.3508376809    0.50367044629712
 s    1 1.00
         0.44605124672                   1
 s    1 1.00
          0.1684885619                   1
 p    5 1.00
          307.66790569  -0.0088797025588865
          72.102015515  -0.064284071721237
          22.532680262   -0.24288739736006
          7.8991765444   -0.48340836369878
          2.8767268321   -0.38952563875509
 p    1 1.00
         0.77459363955                   1
 p    1 1.00
         0.21037699698                   1
 d    1 1.00
                  0.65                   1

7 0
 s    5 1.00
          10449.827566  0.0054265953789407
          1571.7365221   0.040626378128836
          357.12065523    0.18359747852877
          100.25185935    0.47438948768198
          30.812727554    0.43735181104122
 s    3 1.00
          51.923789434  -0.092754154848099
          5.7045760975    0.56380825544207
          2.3508376809    0.50367044629712
 s    1 1.00
         0.44605124672                   1
 s    1 1.00
          0.1684885619                   1
 p    5 1.00
          307.66790569  -0.0088797025588865
          72.102015515  -0.064284071721237
          22.532680262   -0.24288739736006
          7.8991765444   -0.48340836369878
          2.8767268321   -0.38952563875509
 p    1 1.00
         0.77459363955                   1
 p    1 1.00
         0.21037699698                   1
 d    1 1.00
                  0.65                   1

8 0
 s    5 1.00
          10449.827566  0.0054265953789407
          1571.7365221   0.040626378128836
          357.12065523    0.18359747852877
          100.25185935    0.47438948768198
          30.812727554    0.43735181104122
 s    3 1.00
          51.923789434  -0.092754154848099
          5.7045760975    0.56380825544207
          2.3508376809    0.50367044629712
 s    1 1.00
         0.44605124672                   1
 s    1 1.00
          0.1684885619                   1
 p    5 1.00
          307.66790569  -0.0088797025588865
          72.102015515  -0.064284071721237
          22.532680262   -0.24288739736006
          7.8991765444   -0.48340836369878
          2.8767268321   -0.38952563875509
 p    1 1.00
         0.77459363955                   1
 p    1 1.00
         0.21037699698                   1
 d    1 1.00
                  0.65                   1

9 0
 s    5 1.00
          10449.827566  0.0054265953789407
          1571.7365221   0.040626378128836
          357.12065523    0.18359747852877
          100.25185935    0.47438948768198
          30.812727554    0.43735181104122
 s    3 1.00
          51.923789434  -0.092754154848099
          5.7045760975    0.56380825544207
          2.3508376809    0.50367044629712
 s    1 1.00
         0.44605124672                   1
 s    1 1.00
          0.1684885619                   1
 p    5 1.00
          307.66790569  -0.0088797025588865
          72.102015515  -0.064284071721237
          22.532680262   -0.24288739736006
          7.8991765444   -0.48340836369878
          2.8767268321   -0.38952563875509
 p    1 1.00
         0.77459363955                   1
 p    1 1.00
         0.21037699698                   1
 d    1 1.00
                  0.65                   1

[5d]
[7f]
[9g]

[MO]
 Sym= A
 Ene=               0
 Spin= Alpha
 Occup=    1.00000
   1    -0.00015445416844131
   2     0.001229032387806
   3    -0.0035702337449896
   4     0.014648732937444
   5      -0.0235150393492
   6    -0.0068676390580638
   7    0.0018134567584037
   8     0.023004497020252
   9     0.028036432108499
  10    -0.011173222304879
  11    -0.070192933633744
  12    0.0036966174641836
  13    0.0076068141657791
  14    -0.023050557120608
  15    -0.001587359946022
  16    -0.085867067582863
  17     -0.10529080596276
  18     0.075622950497698
  19    0.0077793875819677
  20    -0.0080240406290819
  21    -0.036211508873593
  22    -0.020216592735796
  23      0.02874107391173
  24    0.0010007673991993
  25    8.495769208663e-05
  26    0.00065715916500927
  27    5.9003995940438e-05
  28    0.00010621984551742
  29    0.00025877206001302
  30    -0.00068498773895382
  31    -8.2890811927859e-05
  32    -0.011720496600822
  33    -0.030811988474749
  34     -0.02188723233661
  35     0.055557567228063
  36    -0.029147073493823
  37     0.070453877011345
  38     0.059085216796584
  39    -0.049935823471987
  40     0.050519019446404
  41    0.0029410261699622
  42     0.002207319028828
  43    -0.0011656059908224
  44    -0.0021127074805368
  45    -0.00011169364048692
  46    -0.016371700564457
  47     0.042836706463463
  48     -0.24533182674122
  49      -0.2596522702825
  50     0.079018005346226
  51    -0.037091783340069
  52    -0.014089914002185
  53    -0.035436590436665
  54      0.12908819420685
  55      0.04575329310404
  56      0.11803655076048
  57      0.11034845645764
  58     0.043820222748415
  59     0.061993004427643
  60     0.010884652757401
  61    -0.0088529509206161
  62     0.012965042075642
  63     0.025374234625989
  64    0.0037947185449786
  65    0.0021031142002165
  66    -0.024567917663175
  67    0.0098595924762284
  68     0.026866346470311
  69    -0.0025909637974057
  70     -0.00156358858776
  71    0.0010584985065522
  72    -0.0017118950681693
  73    0.00053263841452519
  74    -0.00087744752084974
  75    -0.0020868703565226
  76    -0.0019176084121806
  77    -0.0055072590549094
  78     0.033576268720002
  79    -0.077312301505403
  80    -0.044387685860646
  81    0.0089763749105338
  82    -0.020418421624711
  83     0.019358934949523
  84     0.018526533541605
  85    -0.044380057056131
  86     0.043321113011311
  87      0.02890880450598
  88    -0.053792032579623
  89     0.058722477987738
  90    -0.0029093584773991
  91    0.0002342907759756
  92     0.004905740355876
  93    0.0023417952495897
  94    -9.5221864935185e-05
  95    0.0045522344087828
  96    -0.032847347434565
  97     0.083612761964126
  98     0.051329380941611
  99    -0.023553445175055
 100     0.010613150376176
 101     0.011896764512172
 102    -0.043136449011269
 103     0.028047566327959
 104     0.029897197122001
 105    -0.055255172444114
 106     0.035184766915547
 107     0.032075803379926
 108    0.00016561308943601
 109    -0.0030151905923627
 110    0.0036240517705933
 111    0.00018292295655219
 112    -0.0032655866373342
 113    0.0022849444974488
 114    -0.010369352950775
 115     0.039743602530598
 116     0.013582648835363
 117    -0.0011299877836577
 118    -0.0075576873900066
 119     -0.01062678818737
 120    -0.0026234691068089
 121    -0.017175088481818
 122    -0.016561422014889
 123    0.0018098032923182
 124    -0.030060391128096
 125     -0.01636930086289
 126    -0.0017827486607754
 127    0.00033330922742172
 128    0.0011360468695691
 129    -0.0018620577750236
 130    0.00072939237691652
 131    -0.0015449845167426
 132    0.0070132741536302
 133    -0.00021523492354838
 134      -0.0126540571484
 135     0.024424147563323
 136    0.0036345102634311
 137     0.013762750029811
 138     0.052568003297854
 139    0.0021305186734977
 140     0.016769806304203
 141     0.068338886622274
 142    0.0026778049337817
 143     0.021309242992645
 144    -0.0046535421606003
 145    -0.0019521320765077
 146    -0.0034889746732654
 147    0.00063432633360885
 148    -0.0011575683447403
 149    -0.020965327773974
 150      0.14575420536075
 151     -0.32697873696413
 152     -0.16201306413235
 153    -0.041174478375714
 154     0.058030683706671
 155    -0.061981420279505
 156    -0.096847891851619
 157      0.12779644619356
 158     -0.14234556247619
 159      -0.1364636168874
 160      0.16456415008443
 161     -0.18689604189574
 162    -0.0059300758349448
 163    -0.016539301507497
 164     0.015357730251715
 165    -0.00045319564917109
 166     0.011121850059721
 167    -0.017469492867567
 168      0.11927707294689
 169     -0.25439271693171
 170     -0.13942173024679
 171    -0.0081432250356489
 172    -0.084602668252279
 173    -0.011784361100324
 174    -0.020308083589985
 175     -0.18006121346156
 176    -0.016680207335162
 177    -0.032042050973717
 178     -0.24096484577195
 179     -0.03952705061065
 180    0.0089834017116178
 181    -0.0023375245143954
 182    -0.0083460819412875
 183     0.016296455454847
 184    -0.0070844444280332
 Sym= A
 Ene=               1
 Spin= Alpha
 Occup=    1.00000
   1    -0.0061436045363221
   2     0.015595992830867
   3    -0.087849335431766
   4    -0.0081157977735574
   5     0.012704768831871
   6    -0.028405010732499
   7     0.010476783342832
   8    -0.017186974889034
   9     0.093660617272522
  10    -0.042403391213697
  11     0.049366537429897
  12     0.013924701228603
  13    -0.010359166373452
  14     0.027731910595935
  15    -0.0087149724264231
  16     0.070726670484028
  17     0.099615918576122
  18    -0.036362354564254
  19    -0.035608947955595
  20    0.00081837199180477
  21     0.022049536995349
  22     0.023802023683765
  23    -0.0090167506202234
  24    -0.019126928630254
  25    -0.00032472196346024
  26    -8.2137379633677e-05
  27    3.7178087506134e-05
  28    0.00014495623283153
  29    0.00044553232248267
  30    0.00060816868357648
  31    0.00081585141162098
  32    -0.042937631290211
  33     -0.16041981481509
  34     -0.11098124692174
  35     0.033854783433875
  36      0.10692817357509
  37    0.0060056332313287
  38     0.012483495964321
  39     0.098925726006087
  40    -0.0010689390442859
  41    0.0019337093342664
  42    -0.0004726765400039
  43    0.0029012628476516
  44    -0.0031498658114973
  45    -0.00059849200395421
  46     0.013080216237029
  47     -0.03508697976052
  48      0.19561045750943
  49      0.13934052473108
  50     -0.04205029217906
  51    0.0051928997061486
  52    -0.024419009016869
  53    -0.051234467026582
  54    -0.018537937580482
  55     0.084543034099881
  56      0.17641227162308
  57    -0.051522659787705
  58     0.057627553646388
  59      0.11708167058564
  60     0.039897083693656
  61    -0.016167807835495
  62     0.031047378756717
  63    -0.038491819383363
  64    0.0012716418650814
  65      0.03546986530943
  66    -0.0050048733676925
  67     0.025246414709624
  68    -0.024834213268896
  69    0.0020923437149458
  70    0.00053707284975422
  71    -0.00015106196915536
  72    0.0023905597404789
  73    -0.00042502662070665
  74    -0.00060651335283079
  75    -0.0007836833936638
  76    0.00060359075028363
  77    0.0038093376003047
  78    -0.022480464593062
  79     0.053194005575391
  80     0.030386299578144
  81    0.0068586746639906
  82     0.010354193111271
  83    -0.015020318129078
  84      0.01411147679742
  85     0.023506435703067
  86    -0.035125221479406
  87      0.01933542698403
  88     0.023935459101343
  89    -0.051447032337375
  90    0.0022924480651725
  91    -0.0016032048183953
  92    -0.0033651196412327
  93    -0.0009221154137886
  94    0.00042343696483053
  95    -0.0012079229033176
  96    0.0080016737669758
  97    -0.019178888023199
  98    -0.0039208899010826
  99     0.023301153132888
 100    -0.0036750945348305
 101    0.0086059784317108
 102     0.043210249973012
 103    -0.010325737085625
 104     0.018431726598074
 105     0.061783558447958
 106    -0.0093626420352577
 107     0.033007325640553
 108    0.0019686507943646
 109    0.00068946358124019
 110    -0.00079505777696204
 111    -0.00019499390227276
 112    0.0016886695904618
 113    -0.0044459601697166
 114     0.027917552794439
 115    -0.073744661747871
 116     -0.03604364846628
 117     0.024609110310765
 118     0.010444927172593
 119     0.002750013089267
 120     0.051735477558815
 121     0.033504954617859
 122    0.0024896395611877
 123     0.068698712436708
 124     0.050098872931701
 125    0.0032305462526458
 126     0.001585586578861
 127    0.00064629719541122
 128    0.0011339326627261
 129    0.0035329116078465
 130    -0.0026386762189711
 131     0.022972212381695
 132     -0.15901032537746
 133      0.35467030600685
 134      0.18456804658524
 135    0.0037239856503725
 136    -0.058149139638063
 137    -0.092795259517641
 138     0.010755836584577
 139     -0.11986004564347
 140     -0.20679942840659
 141     0.014784454368916
 142      -0.1713981813611
 143     -0.27352643772864
 144     0.016582233630529
 145    -0.0017665133208418
 146     0.020612089154386
 147    -0.0063928397225436
 148    -0.00086768172403547
 149    0.0026575881707935
 150    -0.015909541337787
 151     0.028265955503827
 152     0.017058050984493
 153    -0.0017977782929975
 154     0.016156886398847
 155     0.036857480727546
 156    -0.017013478692212
 157     0.037041836762823
 158     0.073293407291639
 159    -0.012134904450262
 160      0.04962605953181
 161     0.098620655058036
 162    0.0055393521194098
 163    0.0036931091597484
 164    -0.0011548770940092
 165    0.0015204220026384
 166    -7.7631541138517e-05
 167    -0.0027849791543412
 168     0.018804585315252
 169    -0.051426843564613
 170    -0.016149762046946
 171    -0.013528823788378
 172    -0.0036754455201333
 173     0.031331308132937
 174    -0.031939649459465
 175    -0.022815248840977
 176     0.060818877628909
 177     -0.03657995511045
 178    -0.036814078041689
 179     0.082812359978303
 180     0.001945732766681
 181    -7.0600473835666e-05
 182    0.0023469424351617
 183    -0.00041845891943613
 184    -0.0018628224768714
 Sym= A
 Ene=               2
 Spin= Alpha
 Occup=    1.00000
   1    0.00080740462954041
   2    -0.012650589644829
   3     0.055901385833839
   4     -0.19623330520201
   5     0.081930367134073
   6     0.057233152940625
   7    -0.028715742022582
   8     -0.22800400152274
   9     -0.21163626390158
  10     0.015533180204197
  11      0.71201064328513
  12     0.050625812360583
  13    -0.028249402000348
  14      0.35890524065548
  15    -0.0096294677188209
  16      0.90664756266843
  17       1.1325857792305
  18     -0.76507724915651
  19     -0.17942285747129
  20     0.070021745758282
  21      0.32985118737782
  22      0.22171157109107
  23     -0.25596679334638
  24    -0.067337878348613
  25    -0.0030348749484334
  26    -0.0063785965060049
  27    -0.0010460036835917
  28    0.0015208039460211
  29    -0.0013650521489626
  30    0.0076954711359433
  31    0.0037471774348357
  32     -0.19771169816233
  33     -0.57650166828637
  34     -0.41302592909563
  35     -0.28738482304324
  36      0.68270533951738
  37       -0.515467405316
  38     -0.30338093850842
  39      0.47764149044849
  40     -0.44403505282874
  41    -0.0057387793608998
  42    -0.0097681356320752
  43     0.021312455018484
  44    -0.015984528505196
  45    -0.00063871825960941
  46    -0.0013122474010557
  47    0.0016345589835249
  48     0.038166602751117
  49      0.26176037396572
  50    -0.057003002598804
  51      0.11141762523561
  52     0.072121594228128
  53    0.0080492943104627
  54      -0.4188519671052
  55     -0.14422274746995
  56    -0.051459998446346
  57     -0.14182804104649
  58     -0.04649618439462
  59    -0.057392109145015
  60    -0.069680319372327
  61     -0.28038604077632
  62    -0.056323658737165
  63     -0.12855514026767
  64     0.058121186479831
  65    0.0069316283822503
  66    -0.090187034190887
  67    -0.033328179798044
  68    -0.076660729430705
  69     0.075754256133591
  70    0.0011844917170114
  71    0.0022252538687571
  72    -0.00070615099637468
  73    -0.0013529634659814
  74    -0.0019829125344509
  75    0.00026420111405952
  76    0.0077547818448993
  77     0.057720158012827
  78     -0.35068604430825
  79      0.81039021438621
  80      0.45582017070119
  81    -0.073018818992194
  82      0.20239370103054
  83     -0.19282416471991
  84     -0.16944377519674
  85      0.38153796323605
  86     -0.47550539872585
  87     -0.23886785932787
  88      0.68755742653474
  89     -0.65349935802277
  90      0.02905396869663
  91    -0.0031995064851324
  92    -0.050841722016163
  93    -0.021190773425338
  94    0.00035834817964571
  95    -0.047504150607105
  96      0.36200665745139
  97     -0.67906845274939
  98     -0.40817046373311
  99      0.18610720259686
 100     -0.10249899923783
 101    -0.072868242676927
 102      0.43742012742399
 103     -0.28004552823321
 104     -0.21973536459867
 105      0.57541175803999
 106     -0.32411459174236
 107     -0.32122970330723
 108    -0.0010639351901764
 109     0.029193448753371
 110    -0.033523790619627
 111    0.00098025272838452
 112     0.029929175778115
 113    -0.016794630961449
 114      0.10574491148153
 115     -0.35439346307035
 116     -0.16798400971783
 117     0.039758528809079
 118     0.043613917428018
 119     0.076656610023395
 120     0.099383797374668
 121      0.23960171287087
 122      0.17782179100572
 123     0.077562616875833
 124       0.2937793749355
 125      0.13578940016584
 126     0.017951654764654
 127    -0.0025387836470144
 128    -0.010561577945723
 129      0.02443095135177
 130    -0.0083773418952378
 131    -0.0042269375983962
 132     0.045997732187451
 133    -0.083478441356846
 134    -0.030301048658744
 135    -0.054840040318891
 136    -0.0042244442572155
 137     0.023033959744784
 138     -0.11710919428608
 139     0.021994511111624
 140     0.036373249036395
 141     -0.16016879091133
 142     0.041954367391366
 143      0.08763129054514
 144     0.005610151795407
 145    0.0048861624713013
 146    -0.0008289930574918
 147    0.0018402974193566
 148    0.0047695664963946
 149     0.015538494861416
 150     -0.17084123634734
 151      0.25756551118783
 152      0.10975079061998
 153     -0.03436892162233
 154    -0.085465116182773
 155     0.063834204479441
 156     0.012088272629497
 157     -0.17944473359764
 158        0.175443658862
 159    -0.0042271206181887
 160     -0.25261559272425
 161      0.23627779566283
 162    0.0033965674695058
 163     0.013084315570577
 164    -0.016298491935918
 165    0.0023803348563616
 166    -0.011406152780781
 167     0.015653348993432
 168     -0.10960576828356
 169      0.15435479956719
 170      0.12535651133547
 171    -0.030155957813391
 172      0.13450169451984
 173      0.01208713165043
 174    -0.050656112573244
 175      0.18759807997076
 176     0.065641753311886
 177    -0.059095616164391
 178      0.34629242397119
 179     0.052554630626616
 180    -0.0088659851919151
 181     0.001298446325025
 182     0.014495819191813
 183    -0.023038583056959
 184    0.0029855933376764
 Sym= A
 Ene=               3
 Spin= Alpha
 Occup=    1.00000
   1    0.00040830723178772
   2    -0.0012218257560995
   3    0.0054245620008829
   4    -0.0057552573579001
   5    0.00076775853504809
   6    0.0018905682093903
   7    -6.4662084650774e-05
   8    -0.00062180820023674
   9    -0.0060253576920523
  10    0.0002075394637221
  11    0.0019826187660274
  12    0.0048997774064737
  13    -0.00031086924425183
  14    -0.0063647826532302
  15    0.00042176261166192
  16    -0.00030095507659448
  17    0.00054803607700651
  18    -0.0010825829795012
  19    -2.3391570703025e-05
  20    0.00094970247828838
  21    0.0015877435555263
  22    1.5200815776342e-05
  23    -0.00041907218613746
  24    -0.00019248201895175
  25    4.2647000936193e-05
  26    -0.00031226150810501
  27    -3.4045187531817e-05
  28    -8.5555869189038e-05
  29    6.8556118099206e-06
  30    0.00022396595838556
  31    1.1360754601384e-05
  32     0.001522503473518
  33    0.0041053729593482
  34    0.0021216678339375
  35    -0.0066125530429537
  36    0.00053776048711722
  37    -0.039284019577017
  38    -0.0071098052778788
  39    0.00034224216452743
  40    -0.038038940967133
  41    -0.00014233599025693
  42    -0.00094321218592772
  43    0.0004436329657381
  44    -2.0892307282034e-05
  45    0.0001543609128325
  46    0.0014249246720182
  47    -0.0042362128337568
  48     0.018965525021937
  49    -0.035399783825535
  50     0.014055267532976
  51    -0.0010717140869155
  52    -0.00042200260522363
  53    -0.0064306696053806
  54    0.0033635631238552
  55    0.0014271600666999
  56      0.02001941163791
  57    -0.003485092049814
  58    -0.0003643992665641
  59    -0.026446211998245
  60      0.19173342207733
  61      0.40669943451982
  62      0.61256422746246
  63       0.3903271641149
  64      0.19724351822375
  65     0.050864904066715
  66      0.10984359272935
  67      0.16501626926925
  68      0.10654184297642
  69     0.053266975756101
  70    0.00092189322214047
  71    0.00083680040321264
  72    0.0011083254852233
  73    -0.00012777251470595
  74    -0.00057607037186131
  75    -0.00076442325245117
  76    -0.00025204592163543
  77    0.00021990125547223
  78    -0.0014813892580128
  79     0.002743818237004
  80     0.001315319622517
  81    -0.0016759709623324
  82    0.00063818395775454
  83    -0.00090289562190904
  84    -0.0030700970065067
  85    0.0011161881817953
  86    -0.001577992479445
  87    -0.0039634018894604
  88    0.0024237786817343
  89    -0.0033296937327662
  90    0.00010441864857455
  91    -0.00028317528334851
  92    2.7272990858873e-05
  93    -0.00018512581823318
  94    0.00019531200537514
  95    -4.677240480906e-05
  96    0.00030642046013609
  97    -0.00017062784137227
  98    -0.002146827384973
  99    0.00059840661338875
 100    -4.0067539897283e-05
 101    0.00052300250071627
 102    0.0010324942205044
 103    -2.5931592778114e-05
 104    0.00092095389362908
 105    0.0021377640581529
 106    -0.00087148946680684
 107    0.00060744027215215
 108    -6.2732027054024e-06
 109    0.00010306218051764
 110    -3.3910542472528e-05
 111    4.9168447902659e-05
 112    1.3232082768478e-05
 113    3.5714277335643e-05
 114    -0.00024625091781262
 115    0.00067734775608683
 116    -0.0008017257475549
 117    -0.0001600315321014
 118    -0.00018293524237326
 119    0.00064250145669862
 120    -0.00031656919671361
 121    -0.00033907521628859
 122    0.0010840606746052
 123    -0.000331211189583
 124    -0.00014150490680461
 125    0.0019710260899983
 126    4.7936868986377e-05
 127    0.00012318481884099
 128    2.9668827576636e-05
 129    -1.3362103487502e-05
 130    -8.986005737107e-05
 131     -0.00202340240767
 132     0.013272050035562
 133    -0.016817024159108
 134    -0.011668369987245
 135    -0.015950885349801
 136    0.0080314067708041
 137     0.018019644511896
 138    -0.027096343368561
 139     0.013916166974493
 140     0.031163161822116
 141     -0.04450861529114
 142     0.022816055570637
 143     0.051611898794995
 144    -0.00012739181752667
 145    -0.0016725742209436
 146    0.0001374711048745
 147    0.0011299298552115
 148    -0.0010692800811652
 149    0.00067440529935894
 150    -0.0044470114159706
 151    0.0074699375696601
 152    -0.00088751537578442
 153     0.015984267314687
 154     0.022062239612634
 155     0.011222594542914
 156     0.027091113252754
 157     0.037145400388228
 158     0.018894902778205
 159     0.043821548721713
 160      0.06310743692644
 161     0.031652321331876
 162    -0.00041878914349244
 163    -0.0012254547263956
 164    -0.0017146016863989
 165    -0.0020554851397268
 166    -0.0013350906267282
 167    5.6741494657799e-05
 168    -0.00037019705378671
 169    0.0014506467275543
 170    -0.0020108542908381
 171     0.010005435194563
 172    -0.0089000479624629
 173      0.02510581297758
 174     0.016736453794472
 175     -0.01509284225951
 176     0.042123896678632
 177     0.028216091632567
 178    -0.025832408871682
 179     0.071350796620019
 180    -0.0012180946161457
 181    -0.0013444045438683
 182    -0.0019109885276407
 183    -0.0016510401599315
 184    -0.00044855806849533
 Sym= A
 Ene=               4
 Spin= Alpha
 Occup=    1.00000
   1    0.00041036214558006
   2    -0.0012134984926717
   3    0.0055160456319483