[Molden Format]
made by pyscf v[2.1.1]
[Atoms] (AU)
Fe   1   26     3.17068844873907     0.00098706064664     0.12237737881307
O   2   8     0.00000000000000     0.00000000000000    -0.89004350580623
Fe   3   26    -3.17068844873907    -0.00098706064664     0.12237737881307
Cl   4   17     3.53383895113107    -2.07485195383062     3.76228752659000
Cl   5   17     5.54152580550813    -1.85590924879884    -2.78672786652360
Cl   6   17     4.48169216485503     3.92976278472880    -0.95330240907949
Cl   7   17    -3.53383895113107     2.07485195383062     3.76228752659000
Cl   8   17    -5.54152580550813     1.85590924879884    -2.78672786652360
Cl   9   17    -4.48169216485503    -3.92976278472880    -0.95330240907949
[GTO]
1 0
 s    6 1.00
          60923.640643  0.0017552243692958
          9147.8893982   0.013449023284001
          2081.3505927   0.066678874640978
          587.55977067    0.23176348548844
           191.0904399    0.46945550248188
          65.732730112     0.3596824938678
 s    3 1.00
          127.25891928   -0.10723431835929
           14.83091301    0.62971616328466
          6.0653307408    0.44472317896179
 s    3 1.00
           10.44994371   -0.21694289195548
          1.7245228003    0.69457867408393
         0.71772177325    0.43298308896347
 s    1 1.00
        0.091449828308                   1
 s    1 1.00
        0.033706691021                   1
 p    5 1.00
          773.43750995  0.0091440529992506
          182.15149714   0.067887577136571
          57.547272758    0.26167978878504
          20.614988935    0.51088040113251
           7.634855789    0.33235475570224
 p    3 1.00
           3.871932799    0.33193859098144
          1.4924724132     0.5553666555499
         0.56061284958    0.23106034201617
 p    1 1.00
              0.134915                   1
 d    4 1.00
          38.968133419   0.033335938558743
          10.800067078    0.17766212505983
          3.6136457999      0.441281781625
          1.2129967888    0.57089200490673
 d    1 1.00
          0.3652439317                   1
 f    1 1.00
                 1.598                   1

2 0
 s    5 1.00
          2266.1767785  -0.0053893503921743
          340.87010191   -0.04023472138896
          77.363135167   -0.18008184205526
           21.47964494   -0.46828857657651
          6.6589433124   -0.44692617160187
 s    1 1.00
         0.80975975668                   1
 s    1 1.00
         0.25530772234                   1
 p    3 1.00
          17.721504317   0.062630248763161
           3.863550544    0.33331138482352
          1.0480920883    0.74148638308122
 p    1 1.00
         0.27641544411                   1
 d    1 1.00
                   1.2                   1

3 0
 s    6 1.00
          60923.640643  0.0017552243692958
          9147.8893982   0.013449023284001
          2081.3505927   0.066678874640978
          587.55977067    0.23176348548844
           191.0904399    0.46945550248188
          65.732730112     0.3596824938678
 s    3 1.00
          127.25891928   -0.10723431835929
           14.83091301    0.62971616328466
          6.0653307408    0.44472317896179
 s    3 1.00
           10.44994371   -0.21694289195548
          1.7245228003    0.69457867408393
         0.71772177325    0.43298308896347
 s    1 1.00
        0.091449828308                   1
 s    1 1.00
        0.033706691021                   1
 p    5 1.00
          773.43750995  0.0091440529992506
          182.15149714   0.067887577136571
          57.547272758    0.26167978878504
          20.614988935    0.51088040113251
           7.634855789    0.33235475570224
 p    3 1.00
           3.871932799    0.33193859098144
          1.4924724132     0.5553666555499
         0.56061284958    0.23106034201617
 p    1 1.00
              0.134915                   1
 d    4 1.00
          38.968133419   0.033335938558743
          10.800067078    0.17766212505983
          3.6136457999      0.441281781625
          1.2129967888    0.57089200490673
 d    1 1.00
          0.3652439317                   1
 f    1 1.00
                 1.598                   1

4 0
 s    5 1.00
          10449.827566  0.0054265953789407
          1571.7365221   0.040626378128836
          357.12065523    0.18359747852877
          100.25185935    0.47438948768198
          30.812727554    0.43735181104122
 s    3 1.00
          51.923789434  -0.092754154848099
          5.7045760975    0.56380825544207
          2.3508376809    0.50367044629712
 s    1 1.00
         0.44605124672                   1
 s    1 1.00
          0.1684885619                   1
 p    5 1.00
          307.66790569  -0.0088797025588865
          72.102015515  -0.064284071721237
          22.532680262   -0.24288739736006
          7.8991765444   -0.48340836369878
          2.8767268321   -0.38952563875509
 p    1 1.00
         0.77459363955                   1
 p    1 1.00
         0.21037699698                   1
 d    1 1.00
                  0.65                   1

5 0
 s    5 1.00
          10449.827566  0.0054265953789407
          1571.7365221   0.040626378128836
          357.12065523    0.18359747852877
          100.25185935    0.47438948768198
          30.812727554    0.43735181104122
 s    3 1.00
          51.923789434  -0.092754154848099
          5.7045760975    0.56380825544207
          2.3508376809    0.50367044629712
 s    1 1.00
         0.44605124672                   1
 s    1 1.00
          0.1684885619                   1
 p    5 1.00
          307.66790569  -0.0088797025588865
          72.102015515  -0.064284071721237
          22.532680262   -0.24288739736006
          7.8991765444   -0.48340836369878
          2.8767268321   -0.38952563875509
 p    1 1.00
         0.77459363955                   1
 p    1 1.00
         0.21037699698                   1
 d    1 1.00
                  0.65                   1

6 0
 s    5 1.00
          10449.827566  0.0054265953789407
          1571.7365221   0.040626378128836
          357.12065523    0.18359747852877
          100.25185935    0.47438948768198
          30.812727554    0.43735181104122
 s    3 1.00
          51.923789434  -0.092754154848099
          5.7045760975    0.56380825544207
          2.3508376809    0.50367044629712
 s    1 1.00
         0.44605124672                   1
 s    1 1.00
          0.1684885619                   1
 p    5 1.00
          307.66790569  -0.0088797025588865
          72.102015515  -0.064284071721237
          22.532680262   -0.24288739736006
          7.8991765444   -0.48340836369878
          2.8767268321   -0.38952563875509
 p    1 1.00
         0.77459363955                   1
 p    1 1.00
         0.21037699698                   1
 d    1 1.00
                  0.65                   1

7 0
 s    5 1.00
          10449.827566  0.0054265953789407
          1571.7365221   0.040626378128836
          357.12065523    0.18359747852877
          100.25185935    0.47438948768198
          30.812727554    0.43735181104122
 s    3 1.00
          51.923789434  -0.092754154848099
          5.7045760975    0.56380825544207
          2.3508376809    0.50367044629712
 s    1 1.00
         0.44605124672                   1
 s    1 1.00
          0.1684885619                   1
 p    5 1.00
          307.66790569  -0.0088797025588865
          72.102015515  -0.064284071721237
          22.532680262   -0.24288739736006
          7.8991765444   -0.48340836369878
          2.8767268321   -0.38952563875509
 p    1 1.00
         0.77459363955                   1
 p    1 1.00
         0.21037699698                   1
 d    1 1.00
                  0.65                   1

8 0
 s    5 1.00
          10449.827566  0.0054265953789407
          1571.7365221   0.040626378128836
          357.12065523    0.18359747852877
          100.25185935    0.47438948768198
          30.812727554    0.43735181104122
 s    3 1.00
          51.923789434  -0.092754154848099
          5.7045760975    0.56380825544207
          2.3508376809    0.50367044629712
 s    1 1.00
         0.44605124672                   1
 s    1 1.00
          0.1684885619                   1
 p    5 1.00
          307.66790569  -0.0088797025588865
          72.102015515  -0.064284071721237
          22.532680262   -0.24288739736006
          7.8991765444   -0.48340836369878
          2.8767268321   -0.38952563875509
 p    1 1.00
         0.77459363955                   1
 p    1 1.00
         0.21037699698                   1
 d    1 1.00
                  0.65                   1

9 0
 s    5 1.00
          10449.827566  0.0054265953789407
          1571.7365221   0.040626378128836
          357.12065523    0.18359747852877
          100.25185935    0.47438948768198
          30.812727554    0.43735181104122
 s    3 1.00
          51.923789434  -0.092754154848099
          5.7045760975    0.56380825544207
          2.3508376809    0.50367044629712
 s    1 1.00
         0.44605124672                   1
 s    1 1.00
          0.1684885619                   1
 p    5 1.00
          307.66790569  -0.0088797025588865
          72.102015515  -0.064284071721237
          22.532680262   -0.24288739736006
          7.8991765444   -0.48340836369878
          2.8767268321   -0.38952563875509
 p    1 1.00
         0.77459363955                   1
 p    1 1.00
         0.21037699698                   1
 d    1 1.00
                  0.65                   1

[5d]
[7f]
[9g]

[MO]
 Sym= A
 Ene=               0
 Spin= Alpha
 Occup=    1.00000
   1     0.023006801370439
   2    -0.060698861923237
   3       0.3408630439734
   4      0.27645249225113
   5    -0.085197390273158
   6    0.0037698888236973
   7    -0.00095194864554779
   8    -0.0019271803552154
   9    -0.013659632449212
  10    0.0029208316496346
  11    0.0052119731267484
  12     0.064377973604568
  13    0.0017744777849735
  14     0.018960276235232
  15     0.010309433523361
  16    -0.017011420785558
  17    -0.017673674668382
  18    -0.015935573071809
  19    -0.0014257131656788
  20     0.011198863823657
  21    -0.017943217031959
  22    -0.012159560415373
  23    -0.020568357233704
  24    -0.0008527678752993
  25    0.0019948541009243
  26    0.0013079453891624
  27    -0.0027473012226201
  28    -0.0011806214766568
  29    0.00050351422245329
  30    -0.0022146693747641
  31    -0.0009735498052483
  32     0.075967889948784
  33     0.093991978046817
  34      0.08158397379666
  35      0.05464711416008
  36    -0.00088696124711542
  37      0.01975147219726
  38     0.061050181080399
  39    -0.0021437091989022
  40     0.021710968533235
  41    -0.0014173118342212
  42    0.0025968904831926
  43    -8.441903258635e-05
  44    0.0041281124744656
  45    2.4984899054555e-05
  46    -0.00040651981201864
  47    0.00064736977260888
  48    -0.0078621435753797
  49    0.00026560002949008
  50     0.018164899623726
  51    -0.0036933653096904
  52    -6.2218678433292e-05
  53    0.00092860784941538
  54     0.011701764663527
  55    0.00020803415998657
  56    -0.0029220477399805
  57     0.011996663363979
  58    -0.0011611398483164
  59    -0.0044011404517309
  60    0.00083912666798989
  61    0.0070625966637705
  62    0.0012435045499057
  63    -0.0041223840392746
  64    -0.00017932108878672
  65    0.00017387958205116
  66    0.00094979174071866
  67    -1.8222920316602e-05
  68    7.5305426315931e-05
  69    -6.5864563887765e-05
  70    -1.0862924986944e-05
  71    -0.00010110795239707
  72    3.7817925950278e-06
  73    1.3592630406348e-05
  74    2.0725414132118e-05
  75    0.00011477343534119
  76    -3.0043566161778e-05
  77     0.013679669746303
  78    -0.094300282965839
  79      0.18910006344966
  80      0.10809728750074
  81    -0.0065442552283026
  82      0.03677933871598
  83    -0.058777753488944
  84    -0.013013499926143
  85     0.074788478714894
  86     -0.12201521719592
  87    -0.021927346770096
  88       0.1005054901662
  89     -0.16052122801949
  90     0.011282939374145
  91    0.0017907578013836
  92    -0.014007944430413
  93    -0.0043086351455715
  94    -0.0011563850613436
  95     0.013361074794351
  96    -0.092439784951762
  97      0.18853850242996
  98      0.10526523784559
  99    -0.038439364769893
 100     0.024550361810225
 101     0.045155853062716
 102    -0.079276234171441
 103     0.053749625455314
 104     0.094420466771359
 105     -0.11106955454026
 106     0.064824976470076
 107      0.12311557535163
 108    0.0050277280959546
 109    -0.012574666401958
 110    0.0096700879729594
 111    0.0014517290962384
 112    -0.007528806442214
 113     0.013068200519568
 114     -0.09013470655644
 115      0.18087197900257
 116      0.10344368387521
 117    -0.022163955670267
 118    -0.058746248193867
 119     0.022784725706832
 120    -0.044752228581661
 121     -0.12259870501425
 122     0.043884898946388
 123    -0.065556158375024
 124     -0.15993719783013
 125     0.064309330696815
 126    -0.0059888638837832
 127    -0.0026181610301881
 128    -0.0080047396899756
 129     -0.01152892553523
 130    0.0075237310462984
 131    0.00029395349588225
 132    -0.0015942767135656
 133    -0.0018227361748086
 134     0.003386072787016
 135    0.0085145488941173
 136    -0.00046526728101608
 137    -0.0011742366579862
 138     0.014548462535007
 139    -0.00013852101148665
 140    -0.00099662780678288
 141     0.024967521505228
 142    -0.0016130660421434
 143    -0.0031428036279774
 144    3.2368471548911e-05
 145    -0.00081996209128075
 146    0.00026816734224562
 147    0.00011588138232527
 148    -0.00058167835293413
 149    -0.00048235739141477
 150    0.0033665051889189
 151    -0.0060436637388422
 152    -0.009840960438223
 153    0.0010299796021185
 154    0.0011178034834554
 155    -0.0022363301979107
 156    0.0011685017484161
 157    0.0023170904845748
 158    -0.0045926802756749
 159    0.0012882585877173
 160    0.0042258483254697
 161    -0.0070635375962731
 162    -6.8113924082912e-05
 163    -0.0003661428779976
 164    0.00039471707540402
 165    -0.0001394172347611
 166    0.00034192288276561
 167    -0.00020839228461847
 168    0.0016181360448747
 169    -0.0044473041685287
 170    -0.0056935055186282
 171    0.0040452347601415
 172    -0.0012340846290824
 173    -0.00061518373694193
 174    0.0065301089149325
 175    -0.0030200560170266
 176    -0.001429986203176
 177     0.010961485214746
 178    -0.0053434069504438
 179    -0.001542219967275
 180    0.00018335090233393
 181    0.00017238409603129
 182    -4.4948719589878e-05
 183    0.00033384252380264
 184    -1.4056904709809e-05
 Sym= A
 Ene=               1
 Spin= Alpha
 Occup=    1.00000
   1    -0.001264879591711
   2    0.0037621018199593
   3    -0.016828225074381
   4     0.031470283934184
   5     -0.01386736185143
   6    -0.00068010285673892
   7    -0.0014721597772587
   8    0.0047813503077943
   9    0.0021543638492283
  10    0.0046495662849846
  11    -0.014849352284735
  12    -0.0023115473505041
  13     -0.00569613368212
  14     0.021640638944393
  15     -0.20119687738475
  16      0.47912854946621
  17      0.48269647439076
  18     -0.43360305479312
  19     -0.28039293086744
  20    -0.054025138755281
  21      0.12848601831994
  22      0.13066036300697
  23     -0.11767802766544
  24    -0.075361809936073
  25    -0.0010616791711662
  26    0.0010612811345835
  27    0.00098002098033105
  28    0.00025242711459688
  29    0.0002930397894469
  30    -0.00088618873544678
  31    -0.0005705784145581
  32    -0.0018859897359142
  33    -0.0050803381004264
  34    -0.002577951858523
  35    -0.0081534314049961
  36    -0.014107224631126
  37     0.048562671546404
  38    -0.0090134478839106
  39    -0.013770644274736
  40     0.047328476951635
  41    0.00018083865467086
  42    -0.0011890869253027
  43    0.00020365140200036
  44    0.0001185813743568
  45    0.0001954131118684
  46    -0.00051142908012598
  47    0.0015290576890962
  48    -0.0068004923509886
  49    0.0072767482298332
  50    -0.0012864436096055
  51    0.0023666549254969
  52    -0.00051746881447491
  53    0.00083037980106268
  54    -0.0075483994836218
  55    0.0016465744903882
  56    -0.0026518079741364
  57    0.0065114028429895
  58    -0.0030334325162043
  59    0.0084009381197859
  60    -0.0013704260732411
  61    0.00030341996886467
  62    2.7732375906757e-05
  63    0.0022132336781915
  64    -0.00049342851825794
  65    -0.001378087954041
  66    0.0021574598837751
  67    0.00015821298125458
  68    0.00082496086519432
  69    -0.00080532878129262
  70    -5.1303236847092e-05
  71    -0.00038402157561213
  72    -1.6769929579981e-05
  73    9.3941243105007e-05
  74    6.1507317706382e-05
  75    0.00027407045680094
  76    -0.00011800803222314
  77    0.0013706066395045
  78    -0.0089879666605651
  79     0.011381669756895
  80    0.0065600530094152
  81    -0.018091050476329
  82    0.0080117666052695
  83    -0.010018221537067
  84    -0.030679169815245
  85     0.013822012266284
  86     -0.01745647904771
  87    -0.050555385360375
  88      0.02217118440366
  89    -0.027820231395765
  90    0.00048860709744405
  91    -0.0019700399605675
  92    0.00044860046603333
  93    -0.00087306914976437
  94    0.0012436198814873
  95    -8.4262753793122e-05
  96    0.00057306992633395
  97    -0.0022624717281884
  98    0.0044738025193365
  99     0.011808561128931
 100     0.025693359850279
 101    -0.0080055218505393
 102     0.019934677575237
 103     0.043305400289627
 104    -0.013351988589666
 105     0.031923434791811
 106     0.073866980851189
 107    -0.022213097673801
 108    0.00070573069491602
 109    -0.0013544819701312
 110    -0.001659950301823
 111     0.002050517660921
 112    0.0012700003767747
 113    -0.00020303712396297
 114    0.0013446348457163
 115    -0.0030944607754374
 116    0.0025858596058827
 117     0.013255024332492
 118    -0.0077677986083913
 119    -0.021915240783505
 120     0.022222000161834
 121    -0.013085929633733
 122    -0.036776951521791
 123     0.037169085578377
 124    -0.023045030109568
 125    -0.062083048904499
 126    0.00098890917390593
 127    -0.001274549489279
 128    -0.0015503482328959
 129    0.0016737960795837
 130    0.00080005795400308
 131    -0.00021830525994857
 132    0.0014746954185634
 133    -0.0027517755729771
 134    -0.0014357576614881
 135    -0.0015146928745693
 136    0.00081420719179561
 137    0.00074915574788864
 138    -0.002797696727529
 139    0.0013938609031686
 140    0.0013113161836584
 141    -0.0036448492409974
 142     0.003193331936525
 143    0.0029733952541107
 144    -0.00010360370413851
 145    -0.00030585443957922
 146    5.4253414568013e-05
 147    0.00017253081572436
 148    -0.00024416527879803
 149    7.9491580240575e-05
 150    -0.00052346740869826
 151    0.00040559148813833
 152    0.0032148059697305
 153    0.0010755953774174
 154    7.0533825983251e-05
 155    -0.00068498375217493
 156    0.0018711464399158
 157    0.0001699824446584
 158    -0.0012308155043961
 159    0.0036391444989947
 160    -0.00079918233866474
 161    -0.00049712083141371
 162    4.3434661343234e-05
 163    0.00013847274181595
 164    -5.3115083422997e-05
 165    -9.3063291353395e-05
 166    -2.9927528918264e-05
 167    -9.6367871777499e-05
 168    0.00065243789774443
 169    -0.0013791106000573
 170    0.00029402938414656
 171    -0.00072110703804702
 172    -0.00038051296512885
 173    -0.00077772599219161
 174    -0.001314343087852
 175    -0.0006954931584183
 176    -0.0012824059350464
 177    -0.0018871629172972
 178    -0.00087096252176758
 179    -0.0026515500248827
 180    -0.00010375879641481
 181    0.00013363565119711
 182    1.4180139862313e-05
 183    0.00010296361650006
 184    0.00017685885178959
 Sym= A
 Ene=               2
 Spin= Alpha
 Occup=    1.00000
   1    0.00083682013132725
   2    -0.0024893802768748
   3     0.011126899387482
   4    -0.021098111385196
   5    0.0074919599022126
   6    4.8839317795748e-05
   7    -0.0064894281672319
   8    -0.0032778269357227
   9    -0.00013119326881943
  10     0.019951144277824
  11     0.010009044213255
  12    -0.00093664232703849
  13    -0.028039176471207
  14    -0.015585965902884
  15     -0.52483619211053
  16     -0.15494606068994
  17     -0.46399316462781
  18      -0.1308818023775
  19     -0.48661491083276
  20      -0.1410182560727
  21    -0.040846239231392
  22     -0.12463305714058
  23    -0.034756742905308
  24     -0.12918083951904
  25    -0.00059736039030639
  26    -0.0013448328914095
  27    -0.00055418302615702
  28    -0.00066994379456999
  29    -0.0017022222770002
  30    -7.907717364216e-05
  31    -0.0015109213567787
  32    0.0022539013015171
  33    0.0058724446017216
  34    0.0029152987638289
  35     0.008754065640634
  36    -0.074732670981194
  37    -0.041610058244103
  38    0.0098168229714474
  39    -0.072096489079958
  40     -0.04070623060825
  41    -0.00061153300686587
  42    0.0012249374859634
  43    -0.0011115268567887
  44    -0.00049750510064261
  45    0.0016928552960989
  46    0.00050188096188938
  47    -0.001488038399882
  48    0.0067274749941117
  49    -0.0082051152070891
  50    0.0019836403175043
  51    -0.0021224258520062
  52    -0.0021934761417576
  53    -0.00050372056860747
  54     0.006771913608116
  55    0.0069820014435456
  56    0.0016145103357215
  57    -0.0053339925182782
  58    -0.014015586309575
  59    -0.0068133929740735
  60     0.001392082164217
  61    0.0001768673348743
  62    0.00037419517427147
  63    -0.0017760951529371
  64    -0.0018387404154371
  65    0.0012025305747784
  66    -0.0018660512509565
  67    0.0011807312251431
  68    -0.00056058394244874
  69    -0.0048005219140339
  70    2.1941025473565e-05
  71    0.00032756825259876
  72    0.00014190556444574
  73    -0.00011380986555372
  74    0.00034480693472812
  75    -0.00026143070446883
  76    -0.00065422786221223
  77    -7.8854970885279e-05
  78    0.0005118711379781
  79    -0.00011438347130625
  80    -0.0009833025429005
  81    -0.0031687392782632
  82     0.022885340120295
  83      0.01393742350492
  84    -0.0053248524876579
  85     0.038597375501991
  86     0.023621960340204
  87    -0.0090152126502085
  88     0.065478019216542
  89     0.039894329674772
  90    0.0025940484746016
  91    -0.00043805526665944
  92    0.0013265001379726
  93    0.0014291508731795
  94    0.00011449672681031
  95    0.00043040029603345
  96    -0.002873585249362
  97    0.0053676396023494
  98    -0.0035330878237483
  99    -0.016261575353224
 100    0.0098743595255999
 101    -0.013849084453486
 102    -0.027604597563655
 103     0.016581758371351
 104    -0.023263456964868
 105    -0.043886710355096
 106     0.028284407691477
 107    -0.040317740395494
 108    0.0024044505712665
 109    2.3377956022966e-05
 110    -6.1765433244388e-06
 111    -0.00087107633567125
 112    0.0012549056529442
 113    -0.0010902607924393
 114    0.0071418973363021
 115    -0.0094073377389854
 116    -0.003292974348661
 117      0.01581345321963
 118    0.0090249049082609
 119    0.0077957638400608
 120     0.026687461573958
 121     0.015483694727763
 122     0.013055508416658
 123     0.044057156715427
 124     0.024908683304669
 125     0.022728166882274
 126    -0.00094910831731485
 127    -0.00021332212702957
 128    0.0011541144319713
 129    0.00079425789495289
 130    0.0011684980993881
 131    0.00028507886226722
 132    -0.0018866705349219
 133    0.0025222031314899
 134    0.0052218363295601
 135    0.0023857231339003
 136    4.9657670295347e-05
 137    -0.0019006053627942
 138       0.0041934849036
 139    0.00013499390862617
 140    -0.0032181292741078
 141     0.006425576612111
 142    -0.0011132299692546
 143    -0.0079085678203495
 144    3.2750645282567e-05
 145    0.00053142725524736
 146    5.5930537774152e-05
 147    -0.00028987344343676
 148    8.793938578407e-05
 149    9.5459728202558e-05
 150    -0.00064071608908476
 151    0.0012374978355056
 152    9.5081407276032e-05
 153    0.00086067752551712
 154    0.00045498173564353
 155     0.000775741593395
 156    0.0015435538591046
 157    0.00064824550535139
 158    0.0012443142152164
 159    0.0023753143726621
 160    0.0023029916976403
 161    0.0028034494294153
 162    0.00017251558173165
 163    -0.00012444368541086
 164    2.0628582153807e-05
 165    -0.0001212594158707
 166    -2.3550020636392e-05
 167    -0.00027004679452276
 168     0.001797263849637
 169    -0.0026231552958941
 170    -0.0044681946287388
 171    -0.0030063913015128
 172    -0.00083131361275265
 173    0.00082094929428905
 174    -0.0053988784642988
 175    -0.0013879519194801
 176    0.0014856180329907
 177    -0.0077271703277584
 178    -0.0046260092732072
 179    0.0013507125290427
 180    -0.00012517959608165
 181    -0.00021689246089874
 182    -0.00018683322068329
 183    0.00052516339515977
 184    0.00020537028402293
 Sym= A
 Ene=               3
 Spin= Alpha
 Occup=    1.00000
   1    0.00059804503277137
   2    -0.0017843597750338
   3     0.007940233326685
   4    -0.0099865213965888
   5    -0.0018809315021979
   6    0.0023152079078853
   7    0.0045291258865338
   8    -0.0042634670931439
   9    -0.0071723951298052
  10    -0.014312542920024
  11     0.013565130478549
  12    0.0063239175490442
  13    0.0075653260593025
  14    -0.0061355012573419
  15      0.55586348066904
  16      0.37303319785548
  17     -0.30134098721578
  18      0.11366494000519
  19     -0.46203326386786
  20      0.14559423247384
  21     0.096223150217182
  22    -0.078738783479833
  23     0.031188645470082
  24     -0.11903162359292
  25    0.0001936271078147
  26    0.0018344260924275
  27    5.5632633476394e-05
  28    0.0015842309709777
  29    -0.0013353735888342
  30    -0.00022390540035918
  31    -0.0018717802160067
  32    -0.0049779598158859
  33    -0.012124570389054
  34    -0.0095476353605664
  35    -0.023557748720276
  36    -0.079079143609892
  37     0.071342158363242
  38    -0.026688518177818
  39    -0.077441895925621
  40     0.069522367037512
  41    0.00068743955410595
  42    -0.0020751430001895
  43    -0.0011104213519105
  44    0.0011145223125536
  45    0.0018367081167558
  46    -0.00096900575697383
  47    0.0028706699909901
  48    -0.013007590325593
  49     0.014152367027322
  50    -0.0045764984650852
  51    0.0042453548944027
  52    -0.0025147808222938
  53    0.0010413376113816
  54    -0.013609839070022
  55    0.0080029336996252
  56    -0.0033418814850546
  57     0.012845859559346
  58    -0.015320463860593
  59     0.013551832919182
  60    -0.0022851615102947
  61    -0.00056875276945464
  62    0.00039622043643224
  63    0.0041547942401504
  64    -0.0019914767131463
  65    -0.0022130939550011
  66    0.0031722177675864
  67    0.0015613242801056
  68    0.0021257478541666
  69    -0.0050398097600005
  70    -2.2133136737419e-05
  71    -0.00059028793374401
  72    6.3958897383907e-05
  73    2.0815136217194e-05
  74    0.00036733504989194
  75    0.00047517100668682
  76    -0.000690392683195
  77    -0.0036798401603215
  78     0.024117261356424
  79    -0.030100042568378
  80     -0.03037805312574
  81    -0.010528050529598
  82    -0.027798556299838
  83     0.029927237534997
  84    -0.017567946394152
  85    -0.047309260260474
  86     0.051347976048965
  87      -0.0298714953176
  88    -0.083003033799094
  89     0.091755328389319
  90    -0.0011883167765883
  91    -0.0018042786562914
  92    4.2385548460371e-05
  93    1.7072934598057e-06
  94    0.00041653104441833
  95    0.00048662714421645
  96    -0.0031576393639203
  97    0.0034222537982106
  98    0.0057915354092637
  99    -0.00065968389633794
 100    -0.0051712342057252
 101     0.011276381367575
 102    -0.0011588520588006
 103    -0.0089343858265256
 104     0.019217832648016
 105    -0.0026740753961858
 106    -0.013338901379816
 107     0.032106513881085
 108    -0.0008195595347278
 109    0.00044289083146596
 110    0.00033971240058849
 111    -0.00037762529163826
 112    -0.0015536943001244
 113     0.002884643316057
 114    -0.018781370898219
 115     0.022582842589079
 116     0.025814600061537
 117    0.0005393744468496
 118    -0.029102966987667
 119     0.021818125245873
 120    0.0006525365622335
 121    -0.049104278057548
 122      0.03648858664927
 123    0.0001546582644601
 124      -0.0880082052072
 125     0.063891960022137
 126    -0.00070535268879677
 127    0.00026564207277314
 128    0.00015630071283233
 129    -0.0011071096563942
 130     0.001908984619793
 131    -0.00016011766205949
 132     0.001071226462779
 133    -0.0016143381293889
 134    -0.0023466848360645
 135    -0.00035653165796793
 136    0.0015006762571055
 137    0.00043115876955324
 138    -0.00061147195445314
 139    0.0023706389511599
 140    0.00078608182182639
 141    -0.0018392725310555
 142     0.006355558283133
 143    0.0018365636871727
 144    -4.061965951861e-05
 145    -0.00030348396562158
 146    0.00013077643678413
 147    4.8324797830139e-05
 148    -0.0003068454169642
 149    0.00018373503743217
 150    -0.0012077252573897
 151    0.00097122706819647
 152    0.0071139209098191
 153    0.0025921513379091
 154    0.00053111724119796
 155    -0.00090502152815951
 156    0.0045282143356521
 157    0.00097122433573384
 158    -0.0017552559871824
 159    0.0084306661511752
 160    -0.00016445008619017
 161    0.0010152698969363
 162    0.00015044815517291
 163    0.00028353255592795
 164    -0.00012999603456261
 165    -0.00018653039077835
 166    -0.00015791054159683
 167    -0.00038769360986096
 168    0.0025977517881646
 169    -0.0045234851580389
 170    -0.0028747555368693
 171    -0.0032249542128617
 172    -0.0014621634963032
 173    -0.00096929670388295
 174    -0.0057149262888327
 175    -0.0026070470999123
 176    -0.0014598333043269
 177    -0.0092147192836851
 178    -0.0051084268288659
 179    -0.0045315630999692
 180    -0.00037829866305376
 181    0.00010610685890232
 182    -0.00010199297902345