[Molden Format]
made by pyscf v[2.1.1]
[Atoms] (AU)
Fe   1   26     3.17068844873907     0.00098706064664     0.12237737881307
O   2   8     0.00000000000000     0.00000000000000    -0.89004350580623
Fe   3   26    -3.17068844873907    -0.00098706064664     0.12237737881307
Cl   4   17     3.53383895113107    -2.07485195383062     3.76228752659000
Cl   5   17     5.54152580550813    -1.85590924879884    -2.78672786652360
Cl   6   17     4.48169216485503     3.92976278472880    -0.95330240907949
Cl   7   17    -3.53383895113107     2.07485195383062     3.76228752659000
Cl   8   17    -5.54152580550813     1.85590924879884    -2.78672786652360
Cl   9   17    -4.48169216485503    -3.92976278472880    -0.95330240907949
[GTO]
1 0
 s    6 1.00
          60923.640643  0.0017552243692958
          9147.8893982   0.013449023284001
          2081.3505927   0.066678874640978
          587.55977067    0.23176348548844
           191.0904399    0.46945550248188
          65.732730112     0.3596824938678
 s    3 1.00
          127.25891928   -0.10723431835929
           14.83091301    0.62971616328466
          6.0653307408    0.44472317896179
 s    3 1.00
           10.44994371   -0.21694289195548
          1.7245228003    0.69457867408393
         0.71772177325    0.43298308896347
 s    1 1.00
        0.091449828308                   1
 s    1 1.00
        0.033706691021                   1
 p    5 1.00
          773.43750995  0.0091440529992506
          182.15149714   0.067887577136571
          57.547272758    0.26167978878504
          20.614988935    0.51088040113251
           7.634855789    0.33235475570224
 p    3 1.00
           3.871932799    0.33193859098144
          1.4924724132     0.5553666555499
         0.56061284958    0.23106034201617
 p    1 1.00
              0.134915                   1
 d    4 1.00
          38.968133419   0.033335938558743
          10.800067078    0.17766212505983
          3.6136457999      0.441281781625
          1.2129967888    0.57089200490673
 d    1 1.00
          0.3652439317                   1
 f    1 1.00
                 1.598                   1

2 0
 s    5 1.00
          2266.1767785  -0.0053893503921743
          340.87010191   -0.04023472138896
          77.363135167   -0.18008184205526
           21.47964494   -0.46828857657651
          6.6589433124   -0.44692617160187
 s    1 1.00
         0.80975975668                   1
 s    1 1.00
         0.25530772234                   1
 p    3 1.00
          17.721504317   0.062630248763161
           3.863550544    0.33331138482352
          1.0480920883    0.74148638308122
 p    1 1.00
         0.27641544411                   1
 d    1 1.00
                   1.2                   1

3 0
 s    6 1.00
          60923.640643  0.0017552243692958
          9147.8893982   0.013449023284001
          2081.3505927   0.066678874640978
          587.55977067    0.23176348548844
           191.0904399    0.46945550248188
          65.732730112     0.3596824938678
 s    3 1.00
          127.25891928   -0.10723431835929
           14.83091301    0.62971616328466
          6.0653307408    0.44472317896179
 s    3 1.00
           10.44994371   -0.21694289195548
          1.7245228003    0.69457867408393
         0.71772177325    0.43298308896347
 s    1 1.00
        0.091449828308                   1
 s    1 1.00
        0.033706691021                   1
 p    5 1.00
          773.43750995  0.0091440529992506
          182.15149714   0.067887577136571
          57.547272758    0.26167978878504
          20.614988935    0.51088040113251
           7.634855789    0.33235475570224
 p    3 1.00
           3.871932799    0.33193859098144
          1.4924724132     0.5553666555499
         0.56061284958    0.23106034201617
 p    1 1.00
              0.134915                   1
 d    4 1.00
          38.968133419   0.033335938558743
          10.800067078    0.17766212505983
          3.6136457999      0.441281781625
          1.2129967888    0.57089200490673
 d    1 1.00
          0.3652439317                   1
 f    1 1.00
                 1.598                   1

4 0
 s    5 1.00
          10449.827566  0.0054265953789407
          1571.7365221   0.040626378128836
          357.12065523    0.18359747852877
          100.25185935    0.47438948768198
          30.812727554    0.43735181104122
 s    3 1.00
          51.923789434  -0.092754154848099
          5.7045760975    0.56380825544207
          2.3508376809    0.50367044629712
 s    1 1.00
         0.44605124672                   1
 s    1 1.00
          0.1684885619                   1
 p    5 1.00
          307.66790569  -0.0088797025588865
          72.102015515  -0.064284071721237
          22.532680262   -0.24288739736006
          7.8991765444   -0.48340836369878
          2.8767268321   -0.38952563875509
 p    1 1.00
         0.77459363955                   1
 p    1 1.00
         0.21037699698                   1
 d    1 1.00
                  0.65                   1

5 0
 s    5 1.00
          10449.827566  0.0054265953789407
          1571.7365221   0.040626378128836
          357.12065523    0.18359747852877
          100.25185935    0.47438948768198
          30.812727554    0.43735181104122
 s    3 1.00
          51.923789434  -0.092754154848099
          5.7045760975    0.56380825544207
          2.3508376809    0.50367044629712
 s    1 1.00
         0.44605124672                   1
 s    1 1.00
          0.1684885619                   1
 p    5 1.00
          307.66790569  -0.0088797025588865
          72.102015515  -0.064284071721237
          22.532680262   -0.24288739736006
          7.8991765444   -0.48340836369878
          2.8767268321   -0.38952563875509
 p    1 1.00
         0.77459363955                   1
 p    1 1.00
         0.21037699698                   1
 d    1 1.00
                  0.65                   1

6 0
 s    5 1.00
          10449.827566  0.0054265953789407
          1571.7365221   0.040626378128836
          357.12065523    0.18359747852877
          100.25185935    0.47438948768198
          30.812727554    0.43735181104122
 s    3 1.00
          51.923789434  -0.092754154848099
          5.7045760975    0.56380825544207
          2.3508376809    0.50367044629712
 s    1 1.00
         0.44605124672                   1
 s    1 1.00
          0.1684885619                   1
 p    5 1.00
          307.66790569  -0.0088797025588865
          72.102015515  -0.064284071721237
          22.532680262   -0.24288739736006
          7.8991765444   -0.48340836369878
          2.8767268321   -0.38952563875509
 p    1 1.00
         0.77459363955                   1
 p    1 1.00
         0.21037699698                   1
 d    1 1.00
                  0.65                   1

7 0
 s    5 1.00
          10449.827566  0.0054265953789407
          1571.7365221   0.040626378128836
          357.12065523    0.18359747852877
          100.25185935    0.47438948768198
          30.812727554    0.43735181104122
 s    3 1.00
          51.923789434  -0.092754154848099
          5.7045760975    0.56380825544207
          2.3508376809    0.50367044629712
 s    1 1.00
         0.44605124672                   1
 s    1 1.00
          0.1684885619                   1
 p    5 1.00
          307.66790569  -0.0088797025588865
          72.102015515  -0.064284071721237
          22.532680262   -0.24288739736006
          7.8991765444   -0.48340836369878
          2.8767268321   -0.38952563875509
 p    1 1.00
         0.77459363955                   1
 p    1 1.00
         0.21037699698                   1
 d    1 1.00
                  0.65                   1

8 0
 s    5 1.00
          10449.827566  0.0054265953789407
          1571.7365221   0.040626378128836
          357.12065523    0.18359747852877
          100.25185935    0.47438948768198
          30.812727554    0.43735181104122
 s    3 1.00
          51.923789434  -0.092754154848099
          5.7045760975    0.56380825544207
          2.3508376809    0.50367044629712
 s    1 1.00
         0.44605124672                   1
 s    1 1.00
          0.1684885619                   1
 p    5 1.00
          307.66790569  -0.0088797025588865
          72.102015515  -0.064284071721237
          22.532680262   -0.24288739736006
          7.8991765444   -0.48340836369878
          2.8767268321   -0.38952563875509
 p    1 1.00
         0.77459363955                   1
 p    1 1.00
         0.21037699698                   1
 d    1 1.00
                  0.65                   1

9 0
 s    5 1.00
          10449.827566  0.0054265953789407
          1571.7365221   0.040626378128836
          357.12065523    0.18359747852877
          100.25185935    0.47438948768198
          30.812727554    0.43735181104122
 s    3 1.00
          51.923789434  -0.092754154848099
          5.7045760975    0.56380825544207
          2.3508376809    0.50367044629712
 s    1 1.00
         0.44605124672                   1
 s    1 1.00
          0.1684885619                   1
 p    5 1.00
          307.66790569  -0.0088797025588865
          72.102015515  -0.064284071721237
          22.532680262   -0.24288739736006
          7.8991765444   -0.48340836369878
          2.8767268321   -0.38952563875509
 p    1 1.00
         0.77459363955                   1
 p    1 1.00
         0.21037699698                   1
 d    1 1.00
                  0.65                   1

[5d]
[7f]
[9g]

[MO]
 Sym= A
 Ene=               0
 Spin= Alpha
 Occup=    1.00000
   1    -0.0023629287378339
   2    0.0066195135034093
   3    -0.033385694402535
   4    0.0094140773359741
   5    0.0024019662408857
   6    -0.0064453911806222
   7     0.018277622309663
   8     0.019503548776014
   9     0.020604739329926
  10     -0.05651334694661
  11    -0.060357762350844
  12    -0.028930616444727
  13     0.050604880054332
  14     0.054766633458735
  15    -0.020269503760328
  16     0.046641992888834
  17    -0.083516359869334
  18    -0.047626922920193
  19     0.051854774563813
  20    -0.012195908721017
  21     0.031758629893295
  22    -0.054722838521926
  23    -0.030534128929875
  24      0.03489414510838
  25    -0.00010234089356796
  26    -0.00098409529524195
  27    -0.00059517905067842
  28    0.00047350819421348
  29    -0.0022281161114385
  30    -0.00078938553021782
  31    0.00051472496264233
  32    -1.2210582842757e-16
  33    4.8824716252205e-18
  34    -2.1755315481245e-18
  35    0.0022223870559843
  36     0.012996114881205
  37    1.1431843264317e-17
  38    -0.00044764445203889
  39    0.0040663711375863
  40    1.0069790420794e-17
  41    7.0654844743987e-19
  42    0.00069723686159839
  43    -0.00045459126533628
  44    6.725857773287e-19
  45    -1.4727789930883e-18
  46    0.0023629287378339
  47    -0.0066195135034093
  48     0.033385694402535
  49    -0.0094140773359741
  50    -0.0024019662408857
  51    -0.0064453911806222
  52     0.018277622309663
  53    -0.019503548776014
  54     0.020604739329926
  55     -0.05651334694661
  56     0.060357762350844
  57    -0.028930616444727
  58     0.050604880054333
  59    -0.054766633458735
  60     0.020269503760328
  61     0.046641992888834
  62    -0.083516359869334
  63     0.047626922920193
  64    -0.051854774563813
  65     0.012195908721017
  66     0.031758629893295
  67    -0.054722838521927
  68     0.030534128929875
  69     -0.03489414510838
  70    0.00010234089356796
  71    -0.00098409529524196
  72    -0.00059517905067843
  73    -0.00047350819421349
  74    0.0022281161114385
  75    -0.00078938553021782
  76    0.00051472496264233
  77    0.0035903503174521
  78    -0.022111092755561
  79     0.026840186932981
  80     0.004593185620313
  81    -0.00032250442462834
  82    -0.0082828784447173
  83    -0.070347105060943
  84    -0.00041073384682648
  85    -0.014502122855716
  86     -0.11779642222573
  87    0.0018372311074205
  88    -0.031504435318994
  89     -0.17121728197032
  90    0.0066033364683626
  91    0.0011341700615385
  92    -0.0045865562388881
  93    -0.00057444718725573
  94    0.00020022186118105
  95    -0.0097404180689254
  96     0.061950409929174
  97     -0.08974996001991
  98    -0.025375163437722
  99     0.066547447720785
 100    -0.062135191077343
 101    -0.092628317147017
 102      0.11311804995534
 103     -0.10558249280389
 104     -0.15678472097789
 105      0.15744567727622
 106     -0.15227545472173
 107     -0.22444801724224
 108    -0.0065650097638014
 109     0.012305927330816
 110    -0.0097376815119984
 111    -0.0037479282261732
 112    0.0066628099075602
 113     0.005934582865932
 114    -0.036989057668691
 115     0.046587176488134
 116      0.01685899240175
 117    -0.026855188649302
 118     -0.09148792643218
 119    -0.0042794175014636
 120    -0.045174857853466
 121     -0.15230415301076
 122    -0.0077935829042777
 123    -0.061048171929524
 124     -0.22794412872207
 125    -0.018293724983573
 126    -0.0044194519407962
 127    -0.001266614492926
 128    -0.0065887770762446
 129    -0.0069049364399619
 130    0.0066027970452422
 131    -0.0035903503174521
 132     0.022111092755561
 133    -0.026840186932981
 134    -0.004593185620313
 135    -0.00032250442462832
 136    -0.0082828784447174
 137     0.070347105060943
 138    -0.00041073384682639
 139    -0.014502122855716
 140      0.11779642222573
 141    0.0018372311074205
 142    -0.031504435318994
 143      0.17121728197032
 144    -0.0066033364683626
 145    0.0011341700615385
 146    -0.0045865562388881
 147    0.00057444718725573
 148    -0.00020022186118105
 149    0.0097404180689253
 150    -0.061950409929174
 151      0.08974996001991
 152     0.025375163437722
 153     0.066547447720785
 154    -0.062135191077343
 155     0.092628317147017
 156      0.11311804995534
 157     -0.10558249280389
 158      0.15678472097789
 159      0.15744567727622
 160     -0.15227545472173
 161      0.22444801724224
 162    0.0065650097638014
 163     0.012305927330816
 164    -0.0097376815119985
 165    0.0037479282261732
 166    -0.0066628099075602
 167    -0.0059345828659322
 168     0.036989057668692
 169    -0.046587176488134
 170     -0.01685899240175
 171    -0.026855188649302
 172     -0.09148792643218
 173    0.0042794175014635
 174    -0.045174857853466
 175     -0.15230415301076
 176    0.0077935829042776
 177    -0.061048171929525
 178     -0.22794412872207
 179     0.018293724983573
 180    0.0044194519407962
 181    -0.001266614492926
 182    -0.0065887770762446
 183    0.0069049364399619
 184    -0.0066027970452422
 Sym= A
 Ene=               1
 Spin= Alpha
 Occup=    1.00000
   1    0.0021108104620789
   2    -0.0057850486582938
   3     0.030456655935701
   4    -0.005668976613115
   5     0.004850885706886
   6    0.0052439766496329
   7    -0.020110282388632
   8    -0.018490991729938
   9    -0.017219540903941
  10     0.062052949485433
  11     0.057246569040563
  12     0.021092790280837
  13    -0.056846178005211
  14    -0.051341166565693
  15      0.02733051610072
  16    -0.043781544162287
  17      0.08068612851609
  18     0.044995720002846
  19    -0.054405135681972
  20     0.016684777786301
  21    -0.029345704583948
  22     0.052208583495573
  23     0.030534889511471
  24    -0.036457273946952
  25    0.00023091964421752
  26    0.00098764056175197
  27    0.00047282523143463
  28    -0.00060250899416944
  29    0.0022491845413895
  30    0.00085353967489483
  31    -0.00046097420476652
  32     0.015429784981483
  33    0.0053417016175732
  34    0.0037242661617542
  35    -2.0669252187495e-18
  36    -3.264803049055e-17
  37    -0.017431890197717
  38    3.3004176756194e-19
  39    -1.9745121143759e-17
  40    -0.0099177524363129
  41    -0.00028448131753223
  42    -6.7212202788497e-19
  43     1.32912504621e-19
  44    0.00055139777311351
  45    -0.0011342817748535
  46    0.0021108104620789
  47    -0.0057850486582937
  48     0.030456655935701
  49    -0.005668976613115
  50     0.004850885706886
  51    -0.0052439766496329
  52     0.020110282388632
  53    -0.018490991729938
  54     0.017219540903941
  55    -0.062052949485433
  56     0.057246569040562
  57    -0.021092790280837
  58     0.056846178005211
  59    -0.051341166565693
  60      0.02733051610072
  61     0.043781544162287
  62     -0.08068612851609
  63     0.044995720002846
  64    -0.054405135681972
  65     0.016684777786301
  66     0.029345704583948
  67    -0.052208583495573
  68     0.030534889511471
  69    -0.036457273946952
  70    0.00023091964421751
  71    -0.00098764056175197
  72    -0.00047282523143462
  73    -0.00060250899416944
  74    0.0022491845413895
  75    -0.00085353967489482
  76    0.00046097420476652
  77    -0.0029915823262478
  78      0.01833930392813
  79    -0.021402846210872
  80    -0.0051958824154168
  81    -0.0014900085850694
  82     0.014360291212595
  83      0.06464393022862
  84    -0.0024219562592295
  85     0.024627706891711
  86      0.10791556134689
  87    -0.0073274225347019
  88     0.046725015113038
  89      0.15930203620691
  90    -0.0059577910787066
  91    -0.0012799977111166
  92    0.0036153246975709
  93    -8.7811071699664e-05
  94    -0.00020811384839182
  95    0.0098627903868154
  96     -0.06275881358906
  97     0.091373062138351
  98     0.024487613169715
  99    -0.070345788165408
 100     0.063870269628445
 101     0.090131897238833
 102     -0.11952228893263
 103      0.10832176614645
 104      0.15252253655895
 105     -0.16713802970659
 106      0.15810262653228
 107      0.21849666654789
 108    0.0063720521194455
 109    -0.012669134520224
 110    0.0098148538933355
 111    0.0039725269286664
 112    -0.0070390124355296
 113    -0.006070706980089
 114     0.037801293171759
 115    -0.047204523699209
 116     -0.01770799788784
 117     0.021438823662581
 118     0.094815229298547
 119    -4.5010325453274e-05
 120     0.035936169990789
 121      0.15811616290105
 122    0.00058916542211337
 123     0.047134019772248
 124      0.23438191934688
 125    0.0072432067030515
 126    0.0043003693988048
 127      0.00122065607219
 128    0.0070544964627734
 129    0.0070903421572352
 130    -0.0062593745455855
 131    -0.0029915823262478
 132      0.01833930392813
 133    -0.021402846210872
 134    -0.0051958824154168
 135    0.0014900085850694
 136    -0.014360291212595
 137      0.06464393022862
 138    0.0024219562592296
 139    -0.024627706891711
 140      0.10791556134689
 141     0.007327422534702
 142    -0.046725015113038
 143      0.15930203620691
 144    -0.0059577910787066
 145    0.0012799977111166
 146    -0.0036153246975709
 147    -8.7811071699664e-05
 148    -0.00020811384839182
 149    0.0098627903868153
 150     -0.06275881358906
 151     0.091373062138351
 152     0.024487613169715
 153     0.070345788165408
 154    -0.063870269628445
 155     0.090131897238833
 156      0.11952228893263
 157     -0.10832176614645
 158      0.15252253655895
 159      0.16713802970659
 160     -0.15810262653228
 161      0.21849666654789
 162    0.0063720521194455
 163     0.012669134520224
 164    -0.0098148538933354
 165    0.0039725269286663
 166    -0.0070390124355296
 167    -0.006070706980089
 168     0.037801293171759
 169    -0.047204523699209
 170     -0.01770799788784
 171    -0.021438823662581
 172    -0.094815229298547
 173    -4.5010325453286e-05
 174    -0.035936169990789
 175     -0.15811616290105
 176    0.00058916542211332
 177    -0.047134019772248
 178     -0.23438191934688
 179    0.0072432067030514
 180    0.0043003693988048
 181     -0.00122065607219
 182    -0.0070544964627734
 183    0.0070903421572352
 184    -0.0062593745455855
 Sym= A
 Ene=               2
 Spin= Alpha
 Occup=    1.00000
   1    -0.0031372966555857
   2    0.0090686077151193
   3    -0.042982627753551
   4    0.0092611846389204
   5    -0.011821335225387
   6    -0.0039721663291179
   7    -0.017458420748597
   8     0.016833747552597
   9     0.012713148229675
  10     0.054967352015268
  11    -0.053221991210725
  12    -0.023728370858225
  13    -0.055271474896265
  14     0.054008124067591
  15      0.07478999121489
  16     0.013349982753064
  17    -0.035817914313847
  18     0.024051078554418
  19    -0.018972804354692
  20     0.053602151378611
  21     0.011019528143758
  22    -0.026361114651291
  23     0.017962654488117
  24    -0.012377672477261
  25    0.00048209368311979
  26    0.0011038258946389
  27    -0.00085717642375896
  28    -0.00089791182542489
  29    -0.00057454660741179
  30    0.0011498275995388
  31     0.000685964484009
  32    -8.612606896139e-17
  33    6.4322989915657e-17
  34    1.4582718718097e-18
  35    -0.0010366883539685
  36    -0.012524346731777
  37    -1.5177146776287e-16
  38    -0.0021059197183687
  39    -0.0020936844248398
  40    -4.599848748411e-17
  41    -1.2385076100441e-17
  42    0.00019429633687218
  43    -0.00071853610540072
  44    -7.3173361605879e-20
  45    5.6135210241249e-18
  46    0.0031372966555857
  47    -0.0090686077151196
  48     0.042982627753552
  49    -0.0092611846389206
  50     0.011821335225387
  51    -0.0039721663291179
  52    -0.017458420748597
  53    -0.016833747552597
  54     0.012713148229676
  55     0.054967352015269
  56     0.053221991210726
  57    -0.023728370858225
  58    -0.055271474896266
  59    -0.054008124067592
  60    -0.074789991214891
  61     0.013349982753065
  62    -0.035817914313847
  63    -0.024051078554418
  64     0.018972804354692
  65    -0.053602151378612
  66     0.011019528143758
  67    -0.026361114651291
  68    -0.017962654488118
  69     0.012377672477262
  70    -0.0004820936831198
  71    0.0011038258946389
  72    -0.00085717642375898
  73    0.00089791182542491
  74    0.0005745466074118
  75    0.0011498275995388
  76    0.00068596448400901
  77    0.0079314911418758
  78    -0.049159005081457
  79     0.059548277938825
  80     0.019162251130832
  81    -0.0017897070725771
  82      0.09398285005285
  83    -0.087632267879547
  84    -0.0033010306506194
  85      0.15684482149869
  86     -0.14638014917465
  87    0.00061640146025853
  88      0.23333057968048
  89     -0.20387941464102
  90    0.0074476892635695
  91    0.0011339105152063
  92    -0.015512348523496
  93    -0.0059513297896732
  94    -0.00042811821492129
  95    -0.0010272564824704
  96    0.0070009815460977
  97    -0.015587695764617
  98    0.0025745221435329
  99    -0.0054314050824663
 100     0.043580878333657
 101    -0.047703704095747
 102    -0.0081539202060523
 103     0.071728867550903
 104    -0.081290269992935
 105    -0.015363465272845
 106      0.12201336010414
 107     -0.12366642442442
 108    -0.0034075903472034
 109    0.0016735573048482
 110    -0.00020407914502644
 111    -0.00043267918334658
 112    -0.0017226090788208
 113    -0.0062546951474875
 114     0.039786954864338
 115    -0.057355157687096
 116    -0.015806680806218
 117     0.019884445033027
 118     0.071860252457077
 119    -0.072039401749931
 120     0.033612421957626
 121      0.12216834469115
 122     -0.12008772541523
 123     0.047904109325073
 124      0.17234291109738
 125     -0.18880710264765
 126    0.0020448654016065
 127    0.0025929891091043
 128     0.010894320554099
 129    0.0069504197846193
 130    -0.0049169571172711
 131    -0.0079314911418758
 132     0.049159005081458
 133    -0.059548277938826
 134    -0.019162251130832
 135    -0.0017897070725771
 136     0.093982850052852
 137     0.087632267879549
 138    -0.0033010306506193
 139      0.15684482149869
 140      0.14638014917466
 141    0.0006164014602587
 142      0.23333057968048
 143      0.20387941464103
 144    -0.0074476892635696
 145    0.0011339105152063
 146    -0.015512348523497
 147    0.0059513297896733
 148    0.0004281182149213
 149    0.0010272564824703
 150    -0.007000981546098
 151     0.015587695764617
 152    -0.0025745221435329
 153    -0.0054314050824661
 154     0.043580878333658
 155     0.047703704095748
 156    -0.008153920206052
 157     0.071728867550905
 158     0.081290269992936
 159    -0.015363465272845
 160      0.12201336010414
 161      0.12366642442442
 162    0.0034075903472034
 163    0.0016735573048483
 164    -0.00020407914502645
 165    0.00043267918334661
 166    0.0017226090788208
 167    0.0062546951474876
 168    -0.039786954864339
 169     0.057355157687097
 170     0.015806680806218
 171     0.019884445033027
 172     0.071860252457078
 173     0.072039401749933
 174     0.033612421957627
 175      0.12216834469115
 176      0.12008772541523
 177     0.047904109325074
 178      0.17234291109738
 179      0.18880710264765
 180    -0.0020448654016066
 181    0.0025929891091043
 182     0.010894320554099
 183    -0.0069504197846194
 184    0.0049169571172711
 Sym= A
 Ene=               3
 Spin= Alpha
 Occup=    1.00000
   1    -0.0028779473633117
   2    0.0081206250216824
   3    -0.040436877167711
   4    0.0030151914465436
   5     -0.01161019374316
   6    -0.002701679373173
   7    -0.017306631027702
   8     0.017991857290886
   9    0.0094719142030588
  10     0.054248912130456
  11    -0.056853911970156
  12    -0.020897962914687
  13    -0.052268652058227
  14     0.058649142657674
  15      0.06844971708247
  16     0.014748242043372
  17    -0.041222990120044
  18     0.027946331689221
  19    -0.019931676521664
  20     0.049291900244122
  21     0.010432788120504
  22     -0.02971549635242
  23     0.020375569394383
  24    -0.014214962207124
  25    0.00042311023398726
  26    0.0011074090743176
  27    -0.00074947190255218
  28    -0.00085226140908776
  29    -0.00072147762328677
  30     0.001099133054607
  31    0.00076146820907752
  32    0.0048085392357354
  33    -0.0026048985440274
  34    0.0031482884844961
  35    -2.1071726387122e-17
  36    -1.1025917269925e-16
  37     0.015370256460697
  38    -2.8126515768254e-17
  39    -1.4057112571179e-17
  40    0.0039661393447625
  41    0.0012836375998591
  42    1.0712724011098e-18
  43    -6.2606039324376e-18
  44    8.0943181146936e-05
  45    -0.00061373296823307
  46    -0.0028779473633117
  47    0.0081206250216822
  48     -0.04043687716771
  49    0.0030151914465435
  50     -0.01161019374316
  51    0.0027016793731729
  52     0.017306631027702
  53     0.017991857290886
  54    -0.0094719142030585
  55    -0.054248912130455
  56    -0.056853911970155
  57     0.020897962914687
  58     0.052268652058226
  59     0.058649142657674
  60     0.068449717082468
  61    -0.014748242043372
  62     0.041222990120044
  63     0.027946331689221
  64    -0.019931676521664
  65     0.049291900244121
  66    -0.010432788120504
  67      0.02971549635242
  68     0.020375569394382
  69    -0.014214962207124
  70    0.00042311023398725
  71    -0.0011074090743176
  72    0.00074947190255217
  73    -0.00085226140908775
  74    -0.00072147762328676
  75    -0.001099133054607
  76    -0.00076146820907751
  77    0.0077326222788979
  78    -0.047725835515962
  79       0.0551560730619
  80     0.022526891857664
  81    0.0034872774266751
  82     0.090472185701882
  83    -0.090739145237504
  84    0.0062145707789599
  85      0.15058863944399
  86     -0.15133955422328
  87     0.012333528007511
  88      0.22493742640916
  89     -0.21266817611623
  90    0.0075749151195436
  91    0.00089988131683107
  92    -0.015432799449634
  93    -0.0054992368608217
  94    -0.00048745283474898
  95    -0.0017460723971408
  96     0.011583782818218
  97    -0.022473801305136
  98    0.0017562480071037
  99     0.011798133447533
 100     0.042694187550534
 101    -0.046448141196606
 102     0.020988245263181
 103     0.070288822080487
 104    -0.079093162125862
 105     0.027665286648908
 106       0.1199083532542
 107     -0.12007009687749
 108    -0.0030703605994952
 109     0.003152258896811
 110    -0.00062106780537907
 111    -0.0011989460288302
 112    -0.0008675289893424
 113    -0.0061880980060498
 114     0.039427460344422
 115    -0.057911882977737
 116    -0.013451221480306
 117     0.017532995952788
 118     0.069874676635406
 119    -0.075254795519011
 120     0.029874185609631
 121      0.11903978592918
 122     -0.12552527633952
 123     0.040956688830821
 124      0.16664403131087
 125     -0.19748598219442
 126    0.0017633137554952
 127    0.0025099315982652
 128     0.010933596484708
 129    0.0069809865561383
 130    -0.004785634265669
 131    0.0077326222788978
 132    -0.047725835515961
 133     0.055156073061899
 134     0.022526891857663
 135    -0.0034872774266751
 136     -0.09047218570188
 137    -0.090739145237502
 138    -0.0062145707789599
 139     -0.15058863944399
 140     -0.15133955422328
 141    -0.012333528007511
 142     -0.22493742640916
 143     -0.21266817611623
 144    0.0075749151195435
 145    -0.00089988131683106
 146     0.015432799449634
 147    -0.0054992368608216
 148    -0.00048745283474897
 149    -0.0017460723971408
 150     0.011583782818218
 151    -0.022473801305136
 152    0.0017562480071036
 153    -0.011798133447533
 154    -0.042694187550533
 155    -0.046448141196605
 156    -0.020988245263181
 157    -0.070288822080486
 158     -0.07909316212586
 159    -0.027665286648909
 160      -0.1199083532542
 161     -0.12007009687749
 162    -0.0030703605994951
 163    -0.0031522588968109
 164    0.00062106780537908
 165    -0.0011989460288302
 166    -0.00086752898934236
 167    -0.0061880980060497
 168     0.039427460344422
 169    -0.057911882977736
 170    -0.013451221480305
 171    -0.017532995952788
 172    -0.069874676635404
 173     -0.07525479551901
 174    -0.029874185609631
 175     -0.11903978592918
 176     -0.12552527633952
 177    -0.040956688830821
 178     -0.16664403131087
 179     -0.19748598219441
 180    0.0017633137554951
 181    -0.0025099315982652
 182    -0.010933596484708
 183    0.0069809865561382
 184    -0.0047856342656689
 Sym= A
 Ene=               4
 Spin= Alpha
 Occup=    1.00000
   1     0.017660655621464
   2     -0.04759147760128
   3      0.25860795006528