[Molden Format]
made by pyscf v[2.1.1]
[Atoms] (AU)
Fe   1   26     3.17068844873907     0.00098706064664     0.12237737881307
O   2   8     0.00000000000000     0.00000000000000    -0.89004350580623
Fe   3   26    -3.17068844873907    -0.00098706064664     0.12237737881307
Cl   4   17     3.53383895113107    -2.07485195383062     3.76228752659000
Cl   5   17     5.54152580550813    -1.85590924879884    -2.78672786652360
Cl   6   17     4.48169216485503     3.92976278472880    -0.95330240907949
Cl   7   17    -3.53383895113107     2.07485195383062     3.76228752659000
Cl   8   17    -5.54152580550813     1.85590924879884    -2.78672786652360
Cl   9   17    -4.48169216485503    -3.92976278472880    -0.95330240907949
[GTO]
1 0
 s    6 1.00
          60923.640643  0.0017552243692958
          9147.8893982   0.013449023284001
          2081.3505927   0.066678874640978
          587.55977067    0.23176348548844
           191.0904399    0.46945550248188
          65.732730112     0.3596824938678
 s    3 1.00
          127.25891928   -0.10723431835929
           14.83091301    0.62971616328466
          6.0653307408    0.44472317896179
 s    3 1.00
           10.44994371   -0.21694289195548
          1.7245228003    0.69457867408393
         0.71772177325    0.43298308896347
 s    1 1.00
        0.091449828308                   1
 s    1 1.00
        0.033706691021                   1
 p    5 1.00
          773.43750995  0.0091440529992506
          182.15149714   0.067887577136571
          57.547272758    0.26167978878504
          20.614988935    0.51088040113251
           7.634855789    0.33235475570224
 p    3 1.00
           3.871932799    0.33193859098144
          1.4924724132     0.5553666555499
         0.56061284958    0.23106034201617
 p    1 1.00
              0.134915                   1
 d    4 1.00
          38.968133419   0.033335938558743
          10.800067078    0.17766212505983
          3.6136457999      0.441281781625
          1.2129967888    0.57089200490673
 d    1 1.00
          0.3652439317                   1
 f    1 1.00
                 1.598                   1

2 0
 s    5 1.00
          2266.1767785  -0.0053893503921743
          340.87010191   -0.04023472138896
          77.363135167   -0.18008184205526
           21.47964494   -0.46828857657651
          6.6589433124   -0.44692617160187
 s    1 1.00
         0.80975975668                   1
 s    1 1.00
         0.25530772234                   1
 p    3 1.00
          17.721504317   0.062630248763161
           3.863550544    0.33331138482352
          1.0480920883    0.74148638308122
 p    1 1.00
         0.27641544411                   1
 d    1 1.00
                   1.2                   1

3 0
 s    6 1.00
          60923.640643  0.0017552243692958
          9147.8893982   0.013449023284001
          2081.3505927   0.066678874640978
          587.55977067    0.23176348548844
           191.0904399    0.46945550248188
          65.732730112     0.3596824938678
 s    3 1.00
          127.25891928   -0.10723431835929
           14.83091301    0.62971616328466
          6.0653307408    0.44472317896179
 s    3 1.00
           10.44994371   -0.21694289195548
          1.7245228003    0.69457867408393
         0.71772177325    0.43298308896347
 s    1 1.00
        0.091449828308                   1
 s    1 1.00
        0.033706691021                   1
 p    5 1.00
          773.43750995  0.0091440529992506
          182.15149714   0.067887577136571
          57.547272758    0.26167978878504
          20.614988935    0.51088040113251
           7.634855789    0.33235475570224
 p    3 1.00
           3.871932799    0.33193859098144
          1.4924724132     0.5553666555499
         0.56061284958    0.23106034201617
 p    1 1.00
              0.134915                   1
 d    4 1.00
          38.968133419   0.033335938558743
          10.800067078    0.17766212505983
          3.6136457999      0.441281781625
          1.2129967888    0.57089200490673
 d    1 1.00
          0.3652439317                   1
 f    1 1.00
                 1.598                   1

4 0
 s    5 1.00
          10449.827566  0.0054265953789407
          1571.7365221   0.040626378128836
          357.12065523    0.18359747852877
          100.25185935    0.47438948768198
          30.812727554    0.43735181104122
 s    3 1.00
          51.923789434  -0.092754154848099
          5.7045760975    0.56380825544207
          2.3508376809    0.50367044629712
 s    1 1.00
         0.44605124672                   1
 s    1 1.00
          0.1684885619                   1
 p    5 1.00
          307.66790569  -0.0088797025588865
          72.102015515  -0.064284071721237
          22.532680262   -0.24288739736006
          7.8991765444   -0.48340836369878
          2.8767268321   -0.38952563875509
 p    1 1.00
         0.77459363955                   1
 p    1 1.00
         0.21037699698                   1
 d    1 1.00
                  0.65                   1

5 0
 s    5 1.00
          10449.827566  0.0054265953789407
          1571.7365221   0.040626378128836
          357.12065523    0.18359747852877
          100.25185935    0.47438948768198
          30.812727554    0.43735181104122
 s    3 1.00
          51.923789434  -0.092754154848099
          5.7045760975    0.56380825544207
          2.3508376809    0.50367044629712
 s    1 1.00
         0.44605124672                   1
 s    1 1.00
          0.1684885619                   1
 p    5 1.00
          307.66790569  -0.0088797025588865
          72.102015515  -0.064284071721237
          22.532680262   -0.24288739736006
          7.8991765444   -0.48340836369878
          2.8767268321   -0.38952563875509
 p    1 1.00
         0.77459363955                   1
 p    1 1.00
         0.21037699698                   1
 d    1 1.00
                  0.65                   1

6 0
 s    5 1.00
          10449.827566  0.0054265953789407
          1571.7365221   0.040626378128836
          357.12065523    0.18359747852877
          100.25185935    0.47438948768198
          30.812727554    0.43735181104122
 s    3 1.00
          51.923789434  -0.092754154848099
          5.7045760975    0.56380825544207
          2.3508376809    0.50367044629712
 s    1 1.00
         0.44605124672                   1
 s    1 1.00
          0.1684885619                   1
 p    5 1.00
          307.66790569  -0.0088797025588865
          72.102015515  -0.064284071721237
          22.532680262   -0.24288739736006
          7.8991765444   -0.48340836369878
          2.8767268321   -0.38952563875509
 p    1 1.00
         0.77459363955                   1
 p    1 1.00
         0.21037699698                   1
 d    1 1.00
                  0.65                   1

7 0
 s    5 1.00
          10449.827566  0.0054265953789407
          1571.7365221   0.040626378128836
          357.12065523    0.18359747852877
          100.25185935    0.47438948768198
          30.812727554    0.43735181104122
 s    3 1.00
          51.923789434  -0.092754154848099
          5.7045760975    0.56380825544207
          2.3508376809    0.50367044629712
 s    1 1.00
         0.44605124672                   1
 s    1 1.00
          0.1684885619                   1
 p    5 1.00
          307.66790569  -0.0088797025588865
          72.102015515  -0.064284071721237
          22.532680262   -0.24288739736006
          7.8991765444   -0.48340836369878
          2.8767268321   -0.38952563875509
 p    1 1.00
         0.77459363955                   1
 p    1 1.00
         0.21037699698                   1
 d    1 1.00
                  0.65                   1

8 0
 s    5 1.00
          10449.827566  0.0054265953789407
          1571.7365221   0.040626378128836
          357.12065523    0.18359747852877
          100.25185935    0.47438948768198
          30.812727554    0.43735181104122
 s    3 1.00
          51.923789434  -0.092754154848099
          5.7045760975    0.56380825544207
          2.3508376809    0.50367044629712
 s    1 1.00
         0.44605124672                   1
 s    1 1.00
          0.1684885619                   1
 p    5 1.00
          307.66790569  -0.0088797025588865
          72.102015515  -0.064284071721237
          22.532680262   -0.24288739736006
          7.8991765444   -0.48340836369878
          2.8767268321   -0.38952563875509
 p    1 1.00
         0.77459363955                   1
 p    1 1.00
         0.21037699698                   1
 d    1 1.00
                  0.65                   1

9 0
 s    5 1.00
          10449.827566  0.0054265953789407
          1571.7365221   0.040626378128836
          357.12065523    0.18359747852877
          100.25185935    0.47438948768198
          30.812727554    0.43735181104122
 s    3 1.00
          51.923789434  -0.092754154848099
          5.7045760975    0.56380825544207
          2.3508376809    0.50367044629712
 s    1 1.00
         0.44605124672                   1
 s    1 1.00
          0.1684885619                   1
 p    5 1.00
          307.66790569  -0.0088797025588865
          72.102015515  -0.064284071721237
          22.532680262   -0.24288739736006
          7.8991765444   -0.48340836369878
          2.8767268321   -0.38952563875509
 p    1 1.00
         0.77459363955                   1
 p    1 1.00
         0.21037699698                   1
 d    1 1.00
                  0.65                   1

[5d]
[7f]
[9g]

[MO]
 Sym= A
 Ene=               0
 Spin= Alpha
 Occup=    1.00000
   1     0.023007477410117
   2    -0.060700835841231
   3      0.34087225434325
   4      0.27644379903001
   5    -0.085199975977432
   6    0.0037723455382274
   7    -0.00095196292566729
   8    -0.0019265440922147
   9     -0.01366759999211
  10    0.0029208742878774
  11    0.0052099523164374
  12     0.064385199525999
  13    0.0017745818424843
  14     0.018958915832412
  15     0.010310787337532
  16    -0.017013232916454
  17    -0.017673638315404
  18    -0.015938554677366
  19    -0.0014257197667546
  20      0.01119952063077
  21    -0.017943305176349
  22    -0.012159370978425
  23    -0.020569434400262
  24    -0.00085274323891602
  25    0.0019947273301793
  26     0.001307862630886
  27    -0.0027473298297957
  28    -0.0011804243716723
  29    0.0005035169186353
  30    -0.0022144550700416
  31    -0.00097356807003146
  32     0.075974745864217
  33     0.094006094030684
  34     0.081603251188856
  35     0.054613614015861
  36    -0.00088775364780317
  37     0.019743232348106
  38      0.06101237553305
  39    -0.0021444021258348
  40      0.02170480495535
  41    -0.0014169806994896
  42    0.0025962436166554
  43    -8.445091922656e-05
  44     0.004127391177786
  45    2.4957742469099e-05
  46    -0.00040696772822497
  47    0.00064875067615946
  48    -0.0078678968864156
  49    0.00026663065626247
  50     0.018169009818663
  51    -0.0036873832029656
  52    -6.2082283693755e-05
  53    0.00092806208680352
  54     0.011683139740241
  55    0.00020761171975913
  56    -0.0029204200269793
  57     0.012012812339778
  58    -0.001160875766914
  59    -0.0044012729264331
  60    0.00083973015170166
  61    0.0072557218325872
  62    0.0012320914185362
  63    -0.0042196572759548
  64    -0.00017959409841703
  65    0.00017446375015753
  66    0.0010011121258866
  67    -2.1048245839978e-05
  68    4.8993048850942e-05
  69    -6.6003965371492e-05
  70    -1.0391054572436e-05
  71    -0.00010085264757651
  72    3.6678363982839e-06
  73    1.2727512410298e-05
  74    2.0618751987341e-05
  75    0.00011525439015599
  76    -3.0119490541487e-05
  77     0.013679758251867
  78    -0.094300853699199
  79      0.18910042381794
  80      0.10810011042005
  81    -0.0065441972661599
  82     0.036779702983512
  83    -0.058778248565343
  84    -0.013013426331422
  85     0.074789054525564
  86     -0.12201599880189
  87    -0.021927579945117
  88      0.10050710253884
  89     -0.16052357188056
  90     0.011282893343818
  91    0.0017905684914394
  92    -0.014007923023435
  93    -0.0043086625668078
  94    -0.0011562803857707
  95     0.013361171754665
  96    -0.092440425592121
  97      0.18853957479506
  98      0.10526566831809
  99    -0.038439950040137
 100     0.024550588673935
 101     0.045156235205863
 102    -0.079277332464778
 103     0.053750094778817
 104     0.094421172521128
 105     -0.11107089868221
 106      0.06482507979865
 107      0.12311615570832
 108    0.0050278576094007
 109    -0.012574508341815
 110    0.0096700462001617
 111    0.0014515353448415
 112    -0.0075286511847656
 113     0.013068307765799
 114    -0.090135408728235
 115      0.18087290631386
 116      0.10344512138065
 117    -0.022164422097291
 118    -0.058746842865441
 119     0.022784903018232
 120    -0.044753037803498
 121     -0.12259977756379
 122     0.043885165152222
 123    -0.065557768008469
 124     -0.15993874120684
 125     0.064310029468563
 126    -0.0059887194860375
 127    -0.0026181484840377
 128    -0.0080047683931968
 129    -0.011528954837907
 130    0.0075234385885415
 131    0.00029401193097226
 132    -0.0015946666461829
 133    -0.0018220845247401
 134    0.0033859667743294
 135     0.008507601621867
 136    -0.00046712679182612
 137    -0.0011747656130402
 138     0.014536695260724
 139    -0.00014166802424846
 140    -0.00099754633138133
 141     0.024947476720595
 142    -0.0016184611770357
 143    -0.0031445028494209
 144    3.247733730276e-05
 145    -0.00082079945257602
 146    0.00026805662615708
 147    0.00011594206163243
 148    -0.00058223173338156
 149    -0.00048317251960933
 150    0.0033718514670573
 151    -0.0060507241077429
 152    -0.0098462693588509
 153    0.0010234208695174
 154      0.00112131861572
 155    -0.0022411235950164
 156    0.0011572696469385
 157    0.0023231778416977
 158    -0.0046009796807747
 159    0.0012691485753362
 160    0.0042356846165714
 161    -0.0070770441474331
 162    -6.8428392305407e-05
 163    -0.00036612996521211
 164     0.000394959828541
 165    -0.00013936514685178
 166    0.00034194824282712
 167    -0.00020888635734987
 168    0.0016213566473259
 169    -0.0044512543446712
 170    -0.0056975188072564
 171     0.004041179987074
 172    -0.0012383553905026
 173    -0.00061564684024162
 174      0.00652325959869
 175    -0.0030273616130467
 176    -0.0014307508001998
 177     0.010949402986532
 178    -0.0053556288066174
 179    -0.001543771940827
 180    0.00018329650017705
 181    0.00017250858598365
 182    -4.5180580297489e-05
 183    0.00033412936010329
 184    -1.3782713119799e-05
 Sym= A
 Ene=               1
 Spin= Alpha
 Occup=    1.00000
   1    0.0012624744301211
   2    -0.003755139358796
   3     0.016795124211719
   4    -0.031469241005773
   5     0.013929159754859
   6    0.00067801989819204
   7     0.001477696924373
   8    -0.0048082400533801
   9    -0.0021473194318841
  10    -0.0046677566308092
  11      0.01493649947973
  12    0.0023346540059091
  13    0.0057445578952406
  14     -0.02180971077123
  15      0.20129517106638
  16     -0.47894349029457
  17     -0.48273038468847
  18      0.43357080796755
  19      0.28034089306638
  20      0.05408363715924
  21     -0.12836789478001
  22     -0.13067659564539
  23      0.11765350448459
  24     0.075327869636304
  25    0.0010658442475065
  26    -0.0010670254540598
  27    -0.00098054201325118
  28    -0.00025921590584659
  29    -0.00029218080058242
  30    0.00088712756817928
  31    0.00057294546749984
  32    0.0018812243920055
  33    0.0050967824899015
  34    0.0025537362739684
  35    0.0086483864574009
  36     0.014399737334468
  37    -0.049584912401257
  38     0.009457493606876
  39     0.014021458953749
  40    -0.048219577465639
  41    -0.00020486316905502
  42     0.001200032943988
  43    -0.00019746568071912
  44    -0.00011826104500765
  45    -0.00019572921819504
  46    0.00052574718285217
  47    -0.0015699611397407
  48    0.0070002761516799
  49    -0.0074469133637486
  50    0.0013408820059499
  51    -0.0024284752523041
  52    0.0005253847418778
  53    -0.00083763859105798
  54    0.0077508893046605
  55    -0.0016720505223047
  56    0.0026746112166354
  57    -0.006728881857117
  58    0.0030768697790501
  59    -0.0085391237510806
  60    0.0012752476237244
  61    -0.00071361451317963
  62    -7.1256961769633e-06
  63    -0.0019590585414227
  64    0.0006075909584609
  65    0.0014003379904644
  66    -0.0023066272816317
  67    -0.00015476322268037
  68    -0.00081310669888913
  69    0.00085977518250262
  70    4.9495296782029e-05
  71    0.00039237230054956
  72    1.7782681149711e-05
  73    -9.1369602086516e-05
  74    -6.2287381418434e-05
  75    -0.00028375448815283
  76    0.00012035643886858
  77    -0.0013678035584267
  78     0.008969220027932
  79    -0.011347215919909
  80    -0.0065346706052455
  81     0.018071071002522
  82    -0.0080035130446477
  83     0.010004455761358
  84     0.030642159346645
  85    -0.013808768520052
  86     0.017432577010405
  87     0.050506291704103
  88    -0.022134070917448
  89     0.027766976736342
  90    -0.00048518765508344
  91    0.0019647057151715
  92    -0.00045177383655055
  93    0.00086838258957892
  94    -0.0012409574592879
  95    8.1874417974159e-05
  96    -0.00055759288552328
  97    0.0022451853854118
  98    -0.0045303465858745
  99    -0.011791107071831
 100    -0.025701019821939
 101    0.0080044099904538
 102    -0.019903133944127
 103    -0.043317402259191
 104     0.013350245683171
 105    -0.031869058145139
 106    -0.073903377752337
 107     0.022203306601191
 108    -0.00070917396953856
 109    0.0013556838870253
 110    0.0016571099531054
 111    -0.0020452239765591
 112    -0.0012718934556317
 113    0.00020085753321187
 114    -0.0013304927193237
 115    0.0030810232176875
 116    -0.0026417318873925
 117    -0.013244289074943
 118    0.0077782359107725
 119     0.021922872778984
 120    -0.022201994792732
 121     0.013102657677146
 122     0.036790145237001
 123    -0.037137998769822
 124     0.023095633897203
 125     0.062105478462272
 126    -0.00098988202211875
 127    0.0012773991190263
 128    0.0015530998885769
 129    -0.0016691708624324
 130    -0.00079496551670549
 131    0.00022416267764523
 132    -0.0015135706917015
 133    0.0028146549671737
 134    0.0014910300546571
 135    0.0015525845512045
 136    -0.00083853258399234
 137    -0.00078408711078653
 138    0.0028636664714497
 139    -0.0014347027400515
 140    -0.0013731405350195
 141    0.0037564121711748
 142    -0.0032801898889923
 143    -0.0030828535322029
 144    0.00010629936762623
 145    0.00031181266244727
 146    -5.1473369940431e-05
 147    -0.00017675522226469
 148    0.00024837522436156
 149    -7.7414905229371e-05
 150    0.0005091706820334
 151    -0.00037031699472177
 152    -0.003262378330839
 153    -0.0010522168374068
 154    -7.6967851530972e-05
 155    0.00069412193201362
 156    -0.0018311212911122
 157    -0.00018378405390782
 158     0.001250087960689
 159    -0.0035837885988292
 160    0.00080130671440325
 161    0.00049861149640257
 162    -4.539089078234e-05
 163    -0.00014082319635276
 164    5.5476550257444e-05
 165    9.5034400006487e-05
 166    3.0585928588188e-05
 167    0.00010070385587283
 168    -0.00068137262240618
 169    0.0014329182470775
 170    -0.00028895002827214
 171    0.00075406139496799
 172    0.00040693526168157
 173    0.00078926538832565
 174    0.0013704755683718
 175    0.00074411085746042
 176    0.0013015297540422
 177    0.0019864325341847
 178    0.00093053526506508
 179    0.0026917331389222
 180    0.00010614559632284
 181    -0.00013540675860182
 182    -1.2870041137063e-05
 183    -0.00010585473386355
 184    -0.00017965845961235
 Sym= A
 Ene=               2
 Spin= Alpha
 Occup=    1.00000
   1    0.00083342290456534
   2    -0.0024797521680644
   3     0.011079234985396
   4    -0.021070785978375
   5    0.0075544874454206
   6    4.4083534919994e-05
   7    -0.006521408580141
   8    -0.0033023055725028
   9    -0.0001151225057817
  10     0.020054897095386
  11     0.010088176955893
  12    -0.00092727162542479
  13    -0.028261432745256
  14    -0.015721005170298
  15      -0.5247893205567
  16     -0.15477636684308
  17     -0.46394355936481
  18     -0.13091969094704
  19      -0.4863374805179
  20     -0.14098167839222
  21    -0.040740914575253
  22      -0.1245980448026
  23     -0.03478165337972
  24     -0.12900282189583
  25    -0.0005936346818112
  26    -0.0013496030883439
  27    -0.00055241028456424
  28    -0.00067544106556393
  29    -0.0017073268108689
  30    -7.8919435583623e-05
  31    -0.0015208093559278
  32    0.0022475313026196
  33    0.0058798220546772
  34    0.0028871779012397
  35    0.0092134906474357
  36    -0.076074828114281
  37    -0.042438557353637
  38     0.010232396908205
  39    -0.073251892293645
  40    -0.041430301992367
  41    -0.00063102110873923
  42    0.0012348060622067
  43     -0.00113898300844
  44    -0.00049702379072483
  45    0.0016929106717192
  46    0.00051488386678944
  47    -0.0015250851956287
  48     0.006909298155026
  49    -0.0083677278956603
  50    0.0020154024739359
  51    -0.0021767133921711
  52    -0.0022255628418245
  53    -0.00050574154036304
  54    0.0069497095630955
  55    0.0070862501130537
  56    0.0016208243378226
  57    -0.0055215115667533
  58    -0.014249605127667
  59    -0.006923098931183
  60    0.0013746745541504
  61    -0.00013052209251729
  62    0.0004213081666157
  63    -0.0014505974652516
  64    -0.0021720378455807
  65    0.0012381715548102
  66    -0.0019759921292517
  67    0.0012196637726866
  68    -0.0005170436160555
  69    -0.0049898545264964
  70    2.0144247768216e-05
  71    0.00033436569514327
  72    0.00014483022917012
  73    -0.00011147968088256
  74    0.00034979232149785
  75    -0.00027010086598315
  76    -0.00066390636762688
  77    -7.9002532376467e-05
  78    0.00051251482281534
  79    -0.0001057827757249
  80    -0.0010166242598323
  81    -0.0031730810759603
  82     0.022896936393134
  83        0.013944421308
  84    -0.0053317672523007
  85     0.038615605585551
  86     0.023631832696941
  87    -0.0090283694295348
  88     0.065522892525728
  89     0.039931908714179
  90    0.0025944406609902
  91    -0.00043611591162135
  92    0.0013270707432295
  93    0.0014283596301207
  94    0.00011700361195813
  95    0.00042605623353018
  96    -0.0028453424548614
  97     0.005332705058653
  98    -0.0036238570593445
  99    -0.016228692977718
 100     0.009870667774286
 101    -0.013859322542899
 102    -0.027545719365008
 103     0.016574548037559
 104    -0.023278593684447
 105    -0.043782677854765
 106     0.028271221448093
 107    -0.040372769031662
 108    0.0023956318784886
 109    2.5150475479069e-05
 110    -9.5047285378839e-06
 111    -0.00086353106680238
 112    0.0012544579698351
 113    -0.001087589283494
 114    0.0071239806215317
 115    -0.0093740329454995
 116    -0.0032731515288243
 117     0.015793550308333
 118    0.0090163879674652
 119     0.007806069788057
 120     0.026650421605811
 121     0.015469876640046
 122     0.013070845012355
 123      0.04400368193588
 124     0.024868261225247
 125     0.022775825824961
 126    -0.00094656039863208
 127    -0.00021193455898432
 128    0.0011504978487328
 129    0.00078569434401883
 130    0.0011652291483169
 131    0.00029241024822817
 132    -0.0019351035461752
 133    0.0025939930889053
 134    0.0053213216343696
 135     0.002430596051133
 136    3.7291192547662e-05
 137    -0.0019501618089944
 138    0.0042739426971385
 139    0.00011350757764784
 140    -0.0033027775045571
 141    0.0065491834916944
 142    -0.0011618850822296
 143    -0.0080870273776027
 144    3.6912561724008e-05
 145    0.00054286618864327
 146    6.1547700547922e-05
 147    -0.0002964230667981
 148    9.0980720904184e-05
 149    9.8895509075119e-05
 150    -0.00066368637964125
 151    0.0012810804692728
 152    9.7312568311253e-05
 153    0.00089671669533268
 154    0.00045666199862845
 155    0.00078704217930791
 156    0.0016063835670815
 157    0.00064709637628297
 158    0.0012643295539716
 159    0.0024753977314497
 160    0.0023337956455048
 161    0.0028358573179764
 162    0.00017694922681854
 163    -0.00012587917807746
 164    2.1442540771059e-05
 165    -0.00012321720365649
 166    -2.4108999593626e-05
 167    -0.0002701255400759
 168    0.0017976788199947
 169    -0.0026167625596209
 170    -0.0045238249331759
 171    -0.0030061173154254
 172    -0.00081786899302335
 173    0.00082798201335795
 174    -0.0054029751402707
 175    -0.0013606466552873
 176    0.0014994880832199
 177    -0.0077189260507328
 178    -0.0046329498627624
 179    0.0013589826219984
 180    -0.00012663964075414
 181    -0.00021916989331075
 182    -0.00019121917952952
 183    0.00053504387156497
 184    0.00021072647962887
 Sym= A
 Ene=               3
 Spin= Alpha
 Occup=    1.00000
   1    -0.00060853358390982
   2    0.0018142423864928
   3    -0.0080868826507174
   4     0.010043919555922
   5    0.0019742416688675
   6    -0.0023363887630128
   7    -0.0044964614847132
   8    0.0042158089320869
   9    0.0072438264265348
  10     0.014206161262574
  11      -0.0134100424142
  12    -0.0063492231499692
  13    -0.0073195300721984
  14    0.0058593368129799
  15     -0.55573373156545
  16     -0.37269620980417
  17      0.30124322203502
  18     -0.11361236064072
  19      0.46174646384763
  20     -0.14551693864791
  21    -0.096016565855464
  22     0.078683804453422
  23    -0.031178644811379
  24      0.11884562694972
  25    -0.00018544042874939
  26    -0.0018424290097902
  27    -5.7470488290272e-05
  28    -0.0015978291813465
  29    0.0013404472543303
  30    0.00022278918267668
  31    0.0018834257841878
  32    0.0049522555905719
  33     0.012110735836759
  34    0.0094532742019905
  35     0.024701384690699
  36     0.080574295798623
  37    -0.072928725850706
  38     0.027708648065126
  39     0.078729708553055
  40    -0.070917844386668
  41    -0.00072504458911365
  42    0.0020999571291873
  43    0.0011412673295664
  44    -0.0011128000532356
  45    -0.0018368762945101
  46    0.00099724033825014
  47    -0.0029515374081995
  48     0.013400585597057
  49     -0.01446610571082
  50    0.0046655903894525
  51    -0.0043688509607984
  52    0.0025493865368788
  53    -0.0010423946006426
  54      0.01401336740504
  55    -0.0081151053650641
  56    0.0033440834419952
  57     -0.01326330105788
  58     0.015551065886135
  59    -0.013740099813678
  60    0.0018787849519393
  61    -7.8200152672663e-05
  62    -0.0005036259913877
  63    -0.0034024829482193
  64    0.0022532445933291
  65     0.002182891638054
  66    -0.0033959813417429
  67    -0.0016094055784977
  68    -0.0020288138456978
  69    0.0052258597161319
  70    1.6813314931508e-05
  71    0.00060519430597039
  72    -6.3329954541573e-05
  73    -1.2598630868709e-05
  74    -0.00037244518642935
  75    -0.00049413655516995
  76    0.0007022417006691
  77    0.0036842559790981
  78    -0.024146621756346
  79     0.030150272624192
  80     0.030433161737679
  81     0.010490711919202
  82     0.027802840103725
  83    -0.029951513713134
  84     0.017497772633741
  85     0.047315335886984
  86    -0.051387892732119
  87     0.029785447533968
  88     0.083035102576437
  89    -0.091863781408044
  90    0.0011947047335988
  91    0.0017922832850751
  92    -4.8774475419263e-05
  93    -1.0418917768006e-05
  94    -0.00041264209441065
  95    -0.00049070854167527
  96    0.0031845107765892
  97    -0.0034601315522094
  98    -0.0058604233519254
  99    0.00068600737662032
 100    0.0051535525232048
 101    -0.011277395272629
 102    0.0012071274792912
 103    0.0089057773395939
 104    -0.019222276808977
 105    0.0027498137925243
 106     0.013263497745445
 107    -0.032102202746134
 108    0.00081715248762225
 109    -0.00044144450007913
 110    -0.00034345162139573
 111    0.00038528308250426
 112    0.0015494618898941
 113    -0.0028928494300762
 114     0.018835372162986
 115    -0.022654912679825
 116    -0.025959841714043
 117    -0.00049587613977971
 118     0.029140864562444
 119    -0.021810550069308
 120    -0.00057243606657535
 121     0.049168087172422
 122    -0.036474007186002
 123    -2.947046907412e-05
 124     0.088167415333475
 125    -0.063881074225751
 126    0.00070082708068517
 127    -0.00026002598147706
 128    -0.00014760545359442
 129    0.0011235027322912
 130    -0.0018947674249333
 131    0.00017049919607451
 132    -0.0011401136925153
 133    0.0017250451043506
 134    0.0024248573020085
 135    0.00042042230321075
 136    -0.0015521388337017
 137    -0.00049730744062743
 138    0.00072036308549612
 139    -0.0024571555497784
 140    -0.00090432183091703
 141    0.0020352120628969
 142    -0.0065318272294749
 143    -0.0020248183160925
 144    4.3134592700289e-05
 145    0.00031011178173036
 146    -0.00012781014117333
 147    -5.3133615159238e-05
 148    0.00031408146525292
 149    -0.00018101868868923
 150    0.0011886126104161
 151    -0.00091503143900528
 152    -0.007215114831223
 153    -0.0025471171367155
 154    -0.00054190482385609
 155    0.00090445372231211
 156    -0.0044513097677077
 157    -0.00099375745445291
 158    0.0017626264133593
 159    -0.0083261905239572
 160    0.00016375101728984
 161    -0.0010737438329094
 162    -0.00015525851910667
 163    -0.00028851713292137
 164    0.00013359621999452
 165    0.00018912012939656
 166    0.00016096990902093
 167    0.00040050709717517
 168    -0.0026828483225574
 169    0.0046674357854876
 170     0.002947241416901
 171    0.0033146510060268
 172    0.0015382442926136
 173    0.00099051976703297
 174    0.0058706756883219
 175    0.0027425884692054
 176    0.0014937002482374
 177    0.0094797434439791
 178    0.0053205185133907
 179    0.0046150138687647
 180    0.00038494983995772
 181    -0.00010768424795525
 182    0.00010945553932283