[Molden Format]
made by pyscf v[2.1.1]
[Atoms] (AU)
Fe   1   26     3.17068844873907     0.00098706064664     0.12237737881307
O   2   8     0.00000000000000     0.00000000000000    -0.89004350580623
Fe   3   26    -3.17068844873907    -0.00098706064664     0.12237737881307
Cl   4   17     3.53383895113107    -2.07485195383062     3.76228752659000
Cl   5   17     5.54152580550813    -1.85590924879884    -2.78672786652360
Cl   6   17     4.48169216485503     3.92976278472880    -0.95330240907949
Cl   7   17    -3.53383895113107     2.07485195383062     3.76228752659000
Cl   8   17    -5.54152580550813     1.85590924879884    -2.78672786652360
Cl   9   17    -4.48169216485503    -3.92976278472880    -0.95330240907949
[GTO]
1 0
 s    6 1.00
          60923.640643  0.0017552243692958
          9147.8893982   0.013449023284001
          2081.3505927   0.066678874640978
          587.55977067    0.23176348548844
           191.0904399    0.46945550248188
          65.732730112     0.3596824938678
 s    3 1.00
          127.25891928   -0.10723431835929
           14.83091301    0.62971616328466
          6.0653307408    0.44472317896179
 s    3 1.00
           10.44994371   -0.21694289195548
          1.7245228003    0.69457867408393
         0.71772177325    0.43298308896347
 s    1 1.00
        0.091449828308                   1
 s    1 1.00
        0.033706691021                   1
 p    5 1.00
          773.43750995  0.0091440529992506
          182.15149714   0.067887577136571
          57.547272758    0.26167978878504
          20.614988935    0.51088040113251
           7.634855789    0.33235475570224
 p    3 1.00
           3.871932799    0.33193859098144
          1.4924724132     0.5553666555499
         0.56061284958    0.23106034201617
 p    1 1.00
              0.134915                   1
 d    4 1.00
          38.968133419   0.033335938558743
          10.800067078    0.17766212505983
          3.6136457999      0.441281781625
          1.2129967888    0.57089200490673
 d    1 1.00
          0.3652439317                   1
 f    1 1.00
                 1.598                   1

2 0
 s    5 1.00
          2266.1767785  -0.0053893503921743
          340.87010191   -0.04023472138896
          77.363135167   -0.18008184205526
           21.47964494   -0.46828857657651
          6.6589433124   -0.44692617160187
 s    1 1.00
         0.80975975668                   1
 s    1 1.00
         0.25530772234                   1
 p    3 1.00
          17.721504317   0.062630248763161
           3.863550544    0.33331138482352
          1.0480920883    0.74148638308122
 p    1 1.00
         0.27641544411                   1
 d    1 1.00
                   1.2                   1

3 0
 s    6 1.00
          60923.640643  0.0017552243692958
          9147.8893982   0.013449023284001
          2081.3505927   0.066678874640978
          587.55977067    0.23176348548844
           191.0904399    0.46945550248188
          65.732730112     0.3596824938678
 s    3 1.00
          127.25891928   -0.10723431835929
           14.83091301    0.62971616328466
          6.0653307408    0.44472317896179
 s    3 1.00
           10.44994371   -0.21694289195548
          1.7245228003    0.69457867408393
         0.71772177325    0.43298308896347
 s    1 1.00
        0.091449828308                   1
 s    1 1.00
        0.033706691021                   1
 p    5 1.00
          773.43750995  0.0091440529992506
          182.15149714   0.067887577136571
          57.547272758    0.26167978878504
          20.614988935    0.51088040113251
           7.634855789    0.33235475570224
 p    3 1.00
           3.871932799    0.33193859098144
          1.4924724132     0.5553666555499
         0.56061284958    0.23106034201617
 p    1 1.00
              0.134915                   1
 d    4 1.00
          38.968133419   0.033335938558743
          10.800067078    0.17766212505983
          3.6136457999      0.441281781625
          1.2129967888    0.57089200490673
 d    1 1.00
          0.3652439317                   1
 f    1 1.00
                 1.598                   1

4 0
 s    5 1.00
          10449.827566  0.0054265953789407
          1571.7365221   0.040626378128836
          357.12065523    0.18359747852877
          100.25185935    0.47438948768198
          30.812727554    0.43735181104122
 s    3 1.00
          51.923789434  -0.092754154848099
          5.7045760975    0.56380825544207
          2.3508376809    0.50367044629712
 s    1 1.00
         0.44605124672                   1
 s    1 1.00
          0.1684885619                   1
 p    5 1.00
          307.66790569  -0.0088797025588865
          72.102015515  -0.064284071721237
          22.532680262   -0.24288739736006
          7.8991765444   -0.48340836369878
          2.8767268321   -0.38952563875509
 p    1 1.00
         0.77459363955                   1
 p    1 1.00
         0.21037699698                   1
 d    1 1.00
                  0.65                   1

5 0
 s    5 1.00
          10449.827566  0.0054265953789407
          1571.7365221   0.040626378128836
          357.12065523    0.18359747852877
          100.25185935    0.47438948768198
          30.812727554    0.43735181104122
 s    3 1.00
          51.923789434  -0.092754154848099
          5.7045760975    0.56380825544207
          2.3508376809    0.50367044629712
 s    1 1.00
         0.44605124672                   1
 s    1 1.00
          0.1684885619                   1
 p    5 1.00
          307.66790569  -0.0088797025588865
          72.102015515  -0.064284071721237
          22.532680262   -0.24288739736006
          7.8991765444   -0.48340836369878
          2.8767268321   -0.38952563875509
 p    1 1.00
         0.77459363955                   1
 p    1 1.00
         0.21037699698                   1
 d    1 1.00
                  0.65                   1

6 0
 s    5 1.00
          10449.827566  0.0054265953789407
          1571.7365221   0.040626378128836
          357.12065523    0.18359747852877
          100.25185935    0.47438948768198
          30.812727554    0.43735181104122
 s    3 1.00
          51.923789434  -0.092754154848099
          5.7045760975    0.56380825544207
          2.3508376809    0.50367044629712
 s    1 1.00
         0.44605124672                   1
 s    1 1.00
          0.1684885619                   1
 p    5 1.00
          307.66790569  -0.0088797025588865
          72.102015515  -0.064284071721237
          22.532680262   -0.24288739736006
          7.8991765444   -0.48340836369878
          2.8767268321   -0.38952563875509
 p    1 1.00
         0.77459363955                   1
 p    1 1.00
         0.21037699698                   1
 d    1 1.00
                  0.65                   1

7 0
 s    5 1.00
          10449.827566  0.0054265953789407
          1571.7365221   0.040626378128836
          357.12065523    0.18359747852877
          100.25185935    0.47438948768198
          30.812727554    0.43735181104122
 s    3 1.00
          51.923789434  -0.092754154848099
          5.7045760975    0.56380825544207
          2.3508376809    0.50367044629712
 s    1 1.00
         0.44605124672                   1
 s    1 1.00
          0.1684885619                   1
 p    5 1.00
          307.66790569  -0.0088797025588865
          72.102015515  -0.064284071721237
          22.532680262   -0.24288739736006
          7.8991765444   -0.48340836369878
          2.8767268321   -0.38952563875509
 p    1 1.00
         0.77459363955                   1
 p    1 1.00
         0.21037699698                   1
 d    1 1.00
                  0.65                   1

8 0
 s    5 1.00
          10449.827566  0.0054265953789407
          1571.7365221   0.040626378128836
          357.12065523    0.18359747852877
          100.25185935    0.47438948768198
          30.812727554    0.43735181104122
 s    3 1.00
          51.923789434  -0.092754154848099
          5.7045760975    0.56380825544207
          2.3508376809    0.50367044629712
 s    1 1.00
         0.44605124672                   1
 s    1 1.00
          0.1684885619                   1
 p    5 1.00
          307.66790569  -0.0088797025588865
          72.102015515  -0.064284071721237
          22.532680262   -0.24288739736006
          7.8991765444   -0.48340836369878
          2.8767268321   -0.38952563875509
 p    1 1.00
         0.77459363955                   1
 p    1 1.00
         0.21037699698                   1
 d    1 1.00
                  0.65                   1

9 0
 s    5 1.00
          10449.827566  0.0054265953789407
          1571.7365221   0.040626378128836
          357.12065523    0.18359747852877
          100.25185935    0.47438948768198
          30.812727554    0.43735181104122
 s    3 1.00
          51.923789434  -0.092754154848099
          5.7045760975    0.56380825544207
          2.3508376809    0.50367044629712
 s    1 1.00
         0.44605124672                   1
 s    1 1.00
          0.1684885619                   1
 p    5 1.00
          307.66790569  -0.0088797025588865
          72.102015515  -0.064284071721237
          22.532680262   -0.24288739736006
          7.8991765444   -0.48340836369878
          2.8767268321   -0.38952563875509
 p    1 1.00
         0.77459363955                   1
 p    1 1.00
         0.21037699698                   1
 d    1 1.00
                  0.65                   1

[5d]
[7f]
[9g]

[MO]
 Sym= A
 Ene=               0
 Spin= Alpha
 Occup=    1.00000
   1    -0.000406967728225
   2    0.0006487506761593
   3    -0.0078678968864153
   4    0.0002666306562626
   5     0.018169009818663
   6    0.0036873832029656
   7    6.208228369373e-05
   8    0.0009280620868035
   9    -0.011683139740241
  10    -0.0002076117197591
  11    -0.0029204200269793
  12    -0.012012812339778
  13     0.001160875766914
  14    -0.0044012729264331
  15    0.0008397301517015
  16    -0.0072557218325874
  17    -0.0012320914185363
  18    -0.0042196572759548
  19    -0.00017959409841716
  20    0.00017446375015749
  21    -0.0010011121258867
  22    2.1048245839948e-05
  23    4.8993048850965e-05
  24    -6.6003965371527e-05
  25    -1.0391054572435e-05
  26    0.00010085264757651
  27    -3.6678363982856e-06
  28    1.2727512410294e-05
  29    2.061875198734e-05
  30    -0.000115254390156
  31    3.0119490541486e-05
  32     0.075974745864217
  33     0.094006094030684
  34     0.081603251188857
  35    -0.054613614015861
  36    0.00088775364780312
  37     0.019743232348106
  38     -0.06101237553305
  39    0.0021444021258348
  40      0.02170480495535
  41    -0.0014169806994896
  42    -0.0025962436166554
  43    8.445091922656e-05
  44     0.004127391177786
  45    2.4957742469099e-05
  46     0.023007477410116
  47    -0.060700835841231
  48      0.34087225434325
  49      0.27644379903001
  50    -0.085199975977432
  51    -0.0037723455382274
  52    0.00095196292566728
  53    -0.0019265440922147
  54      0.01366759999211
  55    -0.0029208742878774
  56    0.0052099523164374
  57    -0.064385199525999
  58    -0.0017745818424843
  59     0.018958915832412
  60     0.010310787337532
  61     0.017013232916455
  62     0.017673638315404
  63    -0.015938554677366
  64    -0.0014257197667547
  65      0.01119952063077
  66     0.017943305176349
  67     0.012159370978425
  68    -0.020569434400262
  69    -0.00085274323891603
  70    0.0019947273301793
  71    -0.001307862630886
  72    0.0027473298297957
  73    -0.0011804243716723
  74    0.0005035169186353
  75    0.0022144550700416
  76    0.00097356807003146
  77    0.00029401193097215
  78    -0.001594666646183
  79     -0.00182208452474
  80    0.0033859667743295
  81    -0.008507601621867
  82    0.00046712679182613
  83    -0.0011747656130402
  84    -0.014536695260724
  85    0.00014166802424848
  86    -0.00099754633138138
  87    -0.024947476720595
  88    0.0016184611770357
  89    -0.0031445028494209
  90    3.2477337302762e-05
  91    0.00082079945257602
  92    -0.00026805662615709
  93    0.00011594206163242
  94    -0.00058223173338156
  95    -0.00048317251960934
  96    0.0033718514670573
  97    -0.0060507241077428
  98    -0.0098462693588508
  99    -0.0010234208695174
 100     -0.00112131861572
 101    -0.0022411235950164
 102    -0.0011572696469385
 103    -0.0023231778416978
 104    -0.0046009796807747
 105    -0.0012691485753363
 106    -0.0042356846165714
 107    -0.0070770441474332
 108    -6.8428392305405e-05
 109    0.00036612996521211
 110    -0.000394959828541
 111    -0.00013936514685177
 112    0.00034194824282712
 113    -0.00020888635734984
 114    0.0016213566473259
 115    -0.0044512543446713
 116    -0.0056975188072564
 117    -0.004041179987074
 118    0.0012383553905026
 119    -0.00061564684024158
 120     -0.00652325959869
 121    0.0030273616130466
 122    -0.0014307508001997
 123    -0.010949402986532
 124    0.0053556288066174
 125    -0.0015437719408269
 126    0.00018329650017705
 127    -0.00017250858598365
 128    4.5180580297484e-05
 129    0.0003341293601033
 130    -1.3782713119798e-05
 131     0.013679758251866
 132    -0.094300853699199
 133      0.18910042381794
 134      0.10810011042005
 135    0.0065441972661599
 136    -0.036779702983512
 137    -0.058778248565343
 138     0.013013426331422
 139    -0.074789054525564
 140     -0.12201599880189
 141     0.021927579945117
 142     -0.10050710253884
 143     -0.16052357188056
 144     0.011282893343818
 145    -0.0017905684914394
 146     0.014007923023435
 147    -0.0043086625668078
 148    -0.0011562803857707
 149     0.013361171754665
 150    -0.092440425592121
 151      0.18853957479506
 152      0.10526566831809
 153     0.038439950040137
 154    -0.024550588673935
 155     0.045156235205863
 156     0.079277332464778
 157    -0.053750094778816
 158     0.094421172521128
 159      0.11107089868221
 160     -0.06482507979865
 161      0.12311615570832
 162    0.0050278576094007
 163     0.012574508341815
 164    -0.0096700462001617
 165    0.0014515353448415
 166    -0.0075286511847656
 167     0.013068307765799
 168    -0.090135408728235
 169      0.18087290631386
 170      0.10344512138065
 171     0.022164422097291
 172     0.058746842865441
 173     0.022784903018232
 174     0.044753037803498
 175      0.12259977756379
 176     0.043885165152222
 177     0.065557768008469
 178      0.15993874120684
 179     0.064310029468563
 180    -0.0059887194860375
 181    0.0026181484840377
 182    0.0080047683931968
 183    -0.011528954837907
 184    0.0075234385885415
 Sym= A
 Ene=               1
 Spin= Alpha
 Occup=    1.00000
   1    -0.00052574718285217
   2    0.0015699611397407
   3    -0.0070002761516798
   4    0.0074469133637484
   5    -0.0013408820059496
   6    -0.002428475252304
   7    0.00052538474187796
   8    0.00083763859105789
   9    0.0077508893046603
  10    -0.0016720505223052
  11    -0.0026746112166351
  12    -0.0067288818571168
  13    0.0030768697790512
  14      0.00853912375108
  15    -0.0012752476237246
  16    -0.00071361451317944
  17    -7.1256961765178e-06
  18    0.0019590585414229
  19    -0.00060759095846089
  20    -0.0014003379904644
  21    -0.0023066272816314
  22    -0.00015476322268034
  23    0.00081310669888914
  24    -0.00085977518250292
  25    -4.9495296782019e-05
  26    0.00039237230054952
  27    1.7782681149702e-05
  28    9.1369602086493e-05
  29    6.2287381418459e-05
  30    -0.00028375448815282
  31    0.00012035643886863
  32    -0.0018812243920058
  33    -0.0050967824899017
  34    -0.0025537362739694
  35    0.0086483864574021
  36     0.014399737334473
  37     0.049584912401253
  38    0.0094574936068773
  39     0.014021458953754
  40     0.048219577465635
  41    0.00020486316905494
  42    0.0012000329439879
  43    -0.00019746568071903
  44    0.00011826104500765
  45    0.00019572921819516
  46    -0.001262474430121
  47    0.0037551393587957
  48    -0.016795124211718
  49     0.031469241005772
  50    -0.013929159754859
  51    0.00067801989819168
  52    0.0014776969243735
  53      0.00480824005338
  54    -0.002147319431883
  55    -0.0046677566308104
  56     -0.01493649947973
  57    0.0023346540059083
  58    0.0057445578952424
  59      0.02180971077123
  60     -0.20129517106642
  61     -0.47894349029456
  62     -0.48273038468844
  63     -0.43357080796755
  64     -0.28034089306641
  65    -0.054083637159252
  66     -0.12836789478001
  67     -0.13067659564539
  68     -0.11765350448459
  69    -0.075327869636314
  70    -0.0010658442475066
  71    -0.0010670254540597
  72    -0.00098054201325114
  73    0.00025921590584658
  74    0.0002921808005823
  75    0.00088712756817924
  76    0.00057294546749995
  77    -0.0002241626776452
  78    0.0015135706917013
  79    -0.0028146549671735
  80    -0.0014910300546568
  81    0.0015525845512043
  82    -0.00083853258399234
  83    0.00078408711078637
  84    0.0028636664714493
  85    -0.0014347027400515
  86    0.0013731405350192
  87    0.0037564121711743
  88    -0.0032801898889922
  89    0.0030828535322023
  90    -0.00010629936762623
  91    0.00031181266244723
  92    -5.1473369940437e-05
  93    0.00017675522226466
  94    -0.00024837522436156
  95    7.7414905229371e-05
  96    -0.0005091706820334
  97    0.0003703169947218
  98    0.0032623783308389
  99    -0.0010522168374068
 100    -7.6967851531015e-05
 101    -0.00069412193201357
 102    -0.0018311212911122
 103    -0.00018378405390788
 104    -0.0012500879606889
 105    -0.0035837885988292
 106    0.00080130671440306
 107    -0.00049861149640239
 108    4.5390890782345e-05
 109    -0.00014082319635276
 110    5.5476550257444e-05
 111    -9.5034400006481e-05
 112    -3.0585928588199e-05
 113    -0.00010070385587285
 114    0.00068137262240633
 115    -0.0014329182470777
 116    0.00028895002827171
 117    0.00075406139496822
 118    0.00040693526168165
 119    -0.00078926538832559
 120    0.0013704755683722
 121    0.00074411085746056
 122    -0.0013015297540421
 123    0.0019864325341853
 124    0.0009305352650655
 125    -0.0026917331389221
 126    -0.00010614559632285
 127    -0.0001354067586018
 128    -1.2870041137048e-05
 129    0.00010585473386358
 130    0.00017965845961238
 131    0.0013678035584267
 132    -0.0089692200279324
 133      0.01134721591991
 134    0.0065346706052459
 135     0.018071071002523
 136    -0.0080035130446495
 137    -0.010004455761357
 138     0.030642159346646
 139    -0.013808768520055
 140    -0.017432577010404
 141     0.050506291704104
 142    -0.022134070917453
 143    -0.027766976736341
 144    0.00048518765508363
 145    0.0019647057151716
 146    -0.00045177383655062
 147    -0.00086838258957882
 148    0.0012409574592879
 149    -8.1874417974139e-05
 150    0.00055759288552315
 151    -0.0022451853854115
 152    0.0045303465858741
 153     -0.01179110707183
 154     -0.02570101982194
 155    -0.0080044099904551
 156    -0.019903133944125
 157    -0.043317402259192
 158    -0.013350245683173
 159    -0.031869058145135
 160    -0.073903377752338
 161    -0.022203306601195
 162    0.00070917396953876
 163    0.0013556838870253
 164    0.0016571099531054
 165     0.002045223976559
 166    0.0012718934556318
 167    -0.0002008575332119
 168    0.0013304927193239
 169    -0.0030810232176878
 170    0.0026417318873925
 171    -0.013244289074944
 172    0.0077782359107723
 173    -0.021922872778983
 174    -0.022201994792734
 175     0.013102657677146
 176       -0.036790145237
 177    -0.037137998769823
 178     0.023095633897202
 179    -0.062105478462271
 180    0.00098988202211869
 181    0.0012773991190263
 182    0.0015530998885769
 183    0.0016691708624324
 184    0.00079496551670554
 Sym= A
 Ene=               2
 Spin= Alpha
 Occup=    1.00000
   1    0.00051488386678948
   2    -0.0015250851956288
   3    0.0069092981550265
   4    -0.0083677278956609
   5     0.002015402473936
   6    0.0021767133921712
   7    0.0022255628418244
   8    -0.00050574154036311
   9    -0.0069497095630961
  10    -0.0070862501130535
  11    0.0016208243378228
  12    0.0055215115667538
  13     0.014249605127666
  14    -0.0069230989311836
  15    0.0013746745541509
  16    0.00013052209251772
  17    -0.0004213081666161
  18    -0.0014505974652521
  19    -0.0021720378455817
  20    0.0012381715548105
  21     0.001975992129252
  22    -0.0012196637726867
  23    -0.00051704361605588
  24    -0.0049898545264966
  25    2.0144247768219e-05
  26    -0.0003343656951433
  27    -0.00014483022917012
  28    -0.00011147968088256
  29    0.00034979232149783
  30    0.00027010086598317
  31    0.00066390636762685
  32    0.0022475313026197
  33    0.0058798220546776
  34    0.0028871779012399
  35    -0.0092134906474364
  36     0.076074828114278
  37     -0.04243855735364
  38    -0.010232396908205
  39     0.073251892293643
  40    -0.041430301992371
  41    -0.00063102110873924
  42    -0.0012348060622068
  43      0.00113898300844
  44    -0.00049702379072484
  45    0.0016929106717192
  46    0.00083342290456543
  47    -0.0024797521680646
  48     0.011079234985397
  49    -0.021070785978377
  50    0.0075544874454216
  51    -4.4083534920054e-05
  52     0.006521408580141
  53    -0.0033023055725032
  54    0.00011512250578189
  55    -0.020054897095386
  56     0.010088176955895
  57    0.00092727162542457
  58     0.028261432745255
  59    -0.015721005170299
  60     -0.52478932055669
  61      0.15477636684311
  62      0.46394355936485
  63     -0.13091969094701
  64     -0.48633748051788
  65     -0.14098167839222
  66     0.040740914575262
  67      0.12459804480261
  68    -0.034781653379713
  69     -0.12900282189582
  70    -0.00059363468181113
  71     0.001349603088344
  72    0.00055241028456431
  73    -0.00067544106556396
  74    -0.0017073268108689
  75    7.891943558356e-05
  76    0.0015208093559277
  77    0.00029241024822818
  78    -0.0019351035461753
  79    0.0025939930889054
  80    0.0053213216343696
  81    -0.0024305960511331
  82    -3.7291192547619e-05
  83    -0.0019501618089944
  84    -0.0042739426971387
  85    -0.00011350757764777
  86    -0.0033027775045571
  87    -0.0065491834916947
  88    0.0011618850822298
  89    -0.0080870273776028
  90    3.6912561724013e-05
  91    -0.00054286618864329
  92    -6.1547700547912e-05
  93    -0.00029642306679811
  94    9.0980720904203e-05
  95    9.8895509075107e-05
  96    -0.00066368637964117
  97    0.0012810804692727
  98    9.7312568310942e-05
  99    -0.00089671669533257
 100    -0.00045666199862844
 101    0.00078704217930794
 102    -0.0016063835670813
 103    -0.00064709637628295
 104    0.0012643295539717
 105    -0.0024753977314493
 106    -0.0023337956455048
 107    0.0028358573179764
 108    0.00017694922681854
 109    0.00012587917807747
 110    -2.1442540771067e-05
 111    -0.00012321720365648
 112    -2.4108999593622e-05
 113    -0.00027012554007589
 114    0.0017976788199946
 115    -0.0026167625596208
 116    -0.0045238249331759
 117    0.0030061173154254
 118    0.00081786899302328
 119    0.00082798201335803
 120    0.0054029751402705
 121    0.0013606466552872
 122      0.00149948808322
 123    0.0077189260507327
 124    0.0046329498627622
 125    0.0013589826219986
 126    -0.00012663964075413
 127    0.00021916989331075
 128    0.00019121917952952
 129    0.00053504387156498
 130    0.00021072647962885
 131    -7.900253237655e-05
 132    0.00051251482281589
 133    -0.0001057827757256
 134    -0.0010166242598327
 135     0.003173081075959
 136    -0.022896936393133
 137     0.013944421308001
 138    0.0053317672522985
 139     -0.03861560558555
 140     0.023631832696943
 141    0.0090283694295311
 142    -0.065522892525727
 143      0.03993190871418
 144    0.0025944406609902
 145    0.0004361159116212
 146    -0.0013270707432295
 147    0.0014283596301207
 148    0.00011700361195804
 149    0.00042605623353021
 150    -0.0028453424548616
 151    0.0053327050586535
 152    -0.0036238570593446
 153     0.016228692977719
 154    -0.0098706677742843
 155    -0.013859322542898
 156      0.02754571936501
 157    -0.016574548037556
 158    -0.023278593684446
 159     0.043782677854768
 160    -0.028271221448088
 161     -0.04037276903166
 162    0.0023956318784886
 163    -2.5150475479151e-05
 164    9.5047285377633e-06
 165    -0.00086353106680252
 166     0.001254457969835
 167    -0.001087589283494
 168    0.0071239806215318
 169    -0.0093740329454996
 170    -0.0032731515288248
 171    -0.015793550308332
 172    -0.0090163879674662
 173    0.0078060697880584
 174     -0.02665042160581
 175    -0.015469876640048
 176     0.013070845012357
 177    -0.044003681935878
 178     -0.02486826122525
 179     0.022775825824965
 180    -0.00094656039863215
 181    0.00021193455898422
 182    -0.001150497848733
 183    0.00078569434401873
 184    0.0011652291483168
 Sym= A
 Ene=               3
 Spin= Alpha
 Occup=    1.00000
   1    0.0009972403382501
   2    -0.0029515374081994
   3     0.013400585597056
   4     -0.01446610571082
   5    0.0046655903894526
   6    0.0043688509607983
   7    -0.0025493865368789
   8    -0.0010423946006426
   9     -0.01401336740504
  10    0.0081151053650643
  11    0.0033440834419952
  12     0.013263301057879
  13    -0.015551065886136
  14    -0.013740099813678
  15     0.001878784951939
  16    7.8200152672067e-05
  17    0.00050362599138722
  18    -0.0034024829482194
  19    0.0022532445933289
  20    0.0021828916380539
  21    0.0033959813417426
  22    0.0016094055784976
  23    -0.002028813845698
  24     0.005225859716132
  25    1.6813314931514e-05
  26    -0.00060519430597038
  27    6.3329954541578e-05
  28    -1.2598630868716e-05
  29    -0.00037244518642937
  30    0.00049413655516993
  31    -0.00070224170066911
  32    0.0049522555905717
  33     0.012110735836759
  34      0.00945327420199
  35    -0.024701384690698
  36    -0.080574295798625
  37    -0.072928725850704
  38    -0.027708648065124
  39    -0.078729708553057
  40    -0.070917844386667
  41    -0.00072504458911366
  42    -0.0020999571291873
  43    -0.0011412673295664
  44    -0.0011128000532355
  45    -0.0018368762945102
  46    -0.00060853358390979
  47    0.0018142423864927
  48    -0.0080868826507171
  49     0.010043919555922
  50    0.0019742416688673
  51    0.0023363887630125
  52    0.0044964614847134
  53    0.0042158089320867
  54    -0.007243826426534
  55    -0.014206161262574
  56    -0.013410042414199
  57    0.0063492231499684
  58    0.0073195300721988
  59    0.0058593368129793
  60     -0.55573373156545
  61      0.37269620980415
  62     -0.30124322203501
  63     -0.11361236064072
  64      0.46174646384765
  65     -0.14551693864791
  66     0.096016565855461
  67    -0.078683804453419
  68     -0.03117864481138
  69      0.11884562694973
  70    -0.00018544042874942
  71    0.0018424290097901
  72     5.74704882903e-05
  73    -0.0015978291813464
  74    0.0013404472543303
  75    -0.00022278918267669
  76    -0.0018834257841878
  77    0.0001704991960745
  78    -0.0011401136925152
  79    0.0017250451043505
  80    0.0024248573020082
  81    -0.00042042230321071
  82    0.0015521388337017
  83    -0.00049730744062735
  84    -0.00072036308549606
  85    0.0024571555497784
  86    -0.0009043218309169
  87    -0.0020352120628967
  88    0.0065318272294749
  89    -0.0020248183160921
  90    4.3134592700295e-05
  91    -0.00031011178173034
  92    0.00012781014117333
  93    -5.313361515923e-05
  94    0.00031408146525291
  95    -0.00018101868868924
  96    0.0011886126104162
  97    -0.00091503143900539
  98    -0.007215114831223
  99    0.0025471171367155
 100    0.00054190482385608
 101    0.00090445372231205
 102    0.0044513097677078
 103    0.00099375745445288
 104    0.0017626264133592
 105    0.0083261905239573
 106    -0.00016375101728982
 107    -0.0010737438329096
 108    -0.00015525851910668
 109    0.00028851713292137
 110    -0.00013359621999452
 111    0.00018912012939656
 112    0.00016096990902092
 113    0.00040050709717517
 114    -0.0026828483225574
 115    0.0046674357854876
 116     0.002947241416901
 117    -0.0033146510060268
 118    -0.0015382442926136
 119    0.00099051976703296
 120    -0.005870675688322
 121    -0.0027425884692054
 122    0.0014937002482374
 123    -0.0094797434439792
 124    -0.0053205185133907
 125    0.0046150138687647
 126    0.00038494983995772
 127    0.00010768424795524
 128    -0.00010945553932283
 129    -0.0005085518613677
 130    -0.00063950513757532
 131    0.0036842559790981
 132    -0.024146621756345
 133     0.030150272624192
 134     0.030433161737679
 135    -0.010490711919201
 136    -0.027802840103725
 137    -0.029951513713133
 138    -0.017497772633741
 139    -0.047315335886984
 140    -0.051387892732118
 141    -0.029785447533967
 142    -0.083035102576437
 143    -0.091863781408042
 144    0.0011947047335988
 145    -0.001792283285075
 146    4.8774475419241e-05
 147    -1.0418917767987e-05
 148    -0.00041264209441062
 149    -0.00049070854167512
 150    0.0031845107765883
 151    -0.0034601315522081
 152    -0.0058604233519244
 153    -0.0006860073766195
 154    -0.0051535525232054
 155    -0.011277395272628
 156    -0.0012071274792898
 157    -0.0089057773395951
 158    -0.019222276808975
 159    -0.0027498137925219
 160    -0.013263497745447
 161     -0.03210220274613
 162    0.00081715248762228
 163    0.00044144450007917
 164    0.00034345162139571
 165    0.00038528308250428
 166    0.0015494618898941
 167    -0.0028928494300762
 168     0.018835372162987
 169    -0.022654912679826
 170    -0.025959841714043
 171    0.00049587613977974
 172    -0.029140864562445
 173    -0.021810550069308
 174    0.00057243606657539
 175    -0.049168087172423
 176    -0.036474007186002
 177    2.9470469074211e-05
 178    -0.088167415333478
 179    -0.063881074225751
 180    0.00070082708068516
 181    0.00026002598147702
 182    0.00014760545359437
 183    0.0011235027322912