[Molden Format]
made by pyscf v[2.1.1]
[Atoms] (AU)
Fe   1   26     3.17068844873907     0.00098706064664     0.12237737881307
O   2   8     0.00000000000000     0.00000000000000    -0.89004350580623
Fe   3   26    -3.17068844873907    -0.00098706064664     0.12237737881307
Cl   4   17     3.53383895113107    -2.07485195383062     3.76228752659000
Cl   5   17     5.54152580550813    -1.85590924879884    -2.78672786652360
Cl   6   17     4.48169216485503     3.92976278472880    -0.95330240907949
Cl   7   17    -3.53383895113107     2.07485195383062     3.76228752659000
Cl   8   17    -5.54152580550813     1.85590924879884    -2.78672786652360
Cl   9   17    -4.48169216485503    -3.92976278472880    -0.95330240907949
[GTO]
1 0
 s    6 1.00
          60923.640643  0.0017552243692958
          9147.8893982   0.013449023284001
          2081.3505927   0.066678874640978
          587.55977067    0.23176348548844
           191.0904399    0.46945550248188
          65.732730112     0.3596824938678
 s    3 1.00
          127.25891928   -0.10723431835929
           14.83091301    0.62971616328466
          6.0653307408    0.44472317896179
 s    3 1.00
           10.44994371   -0.21694289195548
          1.7245228003    0.69457867408393
         0.71772177325    0.43298308896347
 s    1 1.00
        0.091449828308                   1
 s    1 1.00
        0.033706691021                   1
 p    5 1.00
          773.43750995  0.0091440529992506
          182.15149714   0.067887577136571
          57.547272758    0.26167978878504
          20.614988935    0.51088040113251
           7.634855789    0.33235475570224
 p    3 1.00
           3.871932799    0.33193859098144
          1.4924724132     0.5553666555499
         0.56061284958    0.23106034201617
 p    1 1.00
              0.134915                   1
 d    4 1.00
          38.968133419   0.033335938558743
          10.800067078    0.17766212505983
          3.6136457999      0.441281781625
          1.2129967888    0.57089200490673
 d    1 1.00
          0.3652439317                   1
 f    1 1.00
                 1.598                   1

2 0
 s    5 1.00
          2266.1767785  -0.0053893503921743
          340.87010191   -0.04023472138896
          77.363135167   -0.18008184205526
           21.47964494   -0.46828857657651
          6.6589433124   -0.44692617160187
 s    1 1.00
         0.80975975668                   1
 s    1 1.00
         0.25530772234                   1
 p    3 1.00
          17.721504317   0.062630248763161
           3.863550544    0.33331138482352
          1.0480920883    0.74148638308122
 p    1 1.00
         0.27641544411                   1
 d    1 1.00
                   1.2                   1

3 0
 s    6 1.00
          60923.640643  0.0017552243692958
          9147.8893982   0.013449023284001
          2081.3505927   0.066678874640978
          587.55977067    0.23176348548844
           191.0904399    0.46945550248188
          65.732730112     0.3596824938678
 s    3 1.00
          127.25891928   -0.10723431835929
           14.83091301    0.62971616328466
          6.0653307408    0.44472317896179
 s    3 1.00
           10.44994371   -0.21694289195548
          1.7245228003    0.69457867408393
         0.71772177325    0.43298308896347
 s    1 1.00
        0.091449828308                   1
 s    1 1.00
        0.033706691021                   1
 p    5 1.00
          773.43750995  0.0091440529992506
          182.15149714   0.067887577136571
          57.547272758    0.26167978878504
          20.614988935    0.51088040113251
           7.634855789    0.33235475570224
 p    3 1.00
           3.871932799    0.33193859098144
          1.4924724132     0.5553666555499
         0.56061284958    0.23106034201617
 p    1 1.00
              0.134915                   1
 d    4 1.00
          38.968133419   0.033335938558743
          10.800067078    0.17766212505983
          3.6136457999      0.441281781625
          1.2129967888    0.57089200490673
 d    1 1.00
          0.3652439317                   1
 f    1 1.00
                 1.598                   1

4 0
 s    5 1.00
          10449.827566  0.0054265953789407
          1571.7365221   0.040626378128836
          357.12065523    0.18359747852877
          100.25185935    0.47438948768198
          30.812727554    0.43735181104122
 s    3 1.00
          51.923789434  -0.092754154848099
          5.7045760975    0.56380825544207
          2.3508376809    0.50367044629712
 s    1 1.00
         0.44605124672                   1
 s    1 1.00
          0.1684885619                   1
 p    5 1.00
          307.66790569  -0.0088797025588865
          72.102015515  -0.064284071721237
          22.532680262   -0.24288739736006
          7.8991765444   -0.48340836369878
          2.8767268321   -0.38952563875509
 p    1 1.00
         0.77459363955                   1
 p    1 1.00
         0.21037699698                   1
 d    1 1.00
                  0.65                   1

5 0
 s    5 1.00
          10449.827566  0.0054265953789407
          1571.7365221   0.040626378128836
          357.12065523    0.18359747852877
          100.25185935    0.47438948768198
          30.812727554    0.43735181104122
 s    3 1.00
          51.923789434  -0.092754154848099
          5.7045760975    0.56380825544207
          2.3508376809    0.50367044629712
 s    1 1.00
         0.44605124672                   1
 s    1 1.00
          0.1684885619                   1
 p    5 1.00
          307.66790569  -0.0088797025588865
          72.102015515  -0.064284071721237
          22.532680262   -0.24288739736006
          7.8991765444   -0.48340836369878
          2.8767268321   -0.38952563875509
 p    1 1.00
         0.77459363955                   1
 p    1 1.00
         0.21037699698                   1
 d    1 1.00
                  0.65                   1

6 0
 s    5 1.00
          10449.827566  0.0054265953789407
          1571.7365221   0.040626378128836
          357.12065523    0.18359747852877
          100.25185935    0.47438948768198
          30.812727554    0.43735181104122
 s    3 1.00
          51.923789434  -0.092754154848099
          5.7045760975    0.56380825544207
          2.3508376809    0.50367044629712
 s    1 1.00
         0.44605124672                   1
 s    1 1.00
          0.1684885619                   1
 p    5 1.00
          307.66790569  -0.0088797025588865
          72.102015515  -0.064284071721237
          22.532680262   -0.24288739736006
          7.8991765444   -0.48340836369878
          2.8767268321   -0.38952563875509
 p    1 1.00
         0.77459363955                   1
 p    1 1.00
         0.21037699698                   1
 d    1 1.00
                  0.65                   1

7 0
 s    5 1.00
          10449.827566  0.0054265953789407
          1571.7365221   0.040626378128836
          357.12065523    0.18359747852877
          100.25185935    0.47438948768198
          30.812727554    0.43735181104122
 s    3 1.00
          51.923789434  -0.092754154848099
          5.7045760975    0.56380825544207
          2.3508376809    0.50367044629712
 s    1 1.00
         0.44605124672                   1
 s    1 1.00
          0.1684885619                   1
 p    5 1.00
          307.66790569  -0.0088797025588865
          72.102015515  -0.064284071721237
          22.532680262   -0.24288739736006
          7.8991765444   -0.48340836369878
          2.8767268321   -0.38952563875509
 p    1 1.00
         0.77459363955                   1
 p    1 1.00
         0.21037699698                   1
 d    1 1.00
                  0.65                   1

8 0
 s    5 1.00
          10449.827566  0.0054265953789407
          1571.7365221   0.040626378128836
          357.12065523    0.18359747852877
          100.25185935    0.47438948768198
          30.812727554    0.43735181104122
 s    3 1.00
          51.923789434  -0.092754154848099
          5.7045760975    0.56380825544207
          2.3508376809    0.50367044629712
 s    1 1.00
         0.44605124672                   1
 s    1 1.00
          0.1684885619                   1
 p    5 1.00
          307.66790569  -0.0088797025588865
          72.102015515  -0.064284071721237
          22.532680262   -0.24288739736006
          7.8991765444   -0.48340836369878
          2.8767268321   -0.38952563875509
 p    1 1.00
         0.77459363955                   1
 p    1 1.00
         0.21037699698                   1
 d    1 1.00
                  0.65                   1

9 0
 s    5 1.00
          10449.827566  0.0054265953789407
          1571.7365221   0.040626378128836
          357.12065523    0.18359747852877
          100.25185935    0.47438948768198
          30.812727554    0.43735181104122
 s    3 1.00
          51.923789434  -0.092754154848099
          5.7045760975    0.56380825544207
          2.3508376809    0.50367044629712
 s    1 1.00
         0.44605124672                   1
 s    1 1.00
          0.1684885619                   1
 p    5 1.00
          307.66790569  -0.0088797025588865
          72.102015515  -0.064284071721237
          22.532680262   -0.24288739736006
          7.8991765444   -0.48340836369878
          2.8767268321   -0.38952563875509
 p    1 1.00
         0.77459363955                   1
 p    1 1.00
         0.21037699698                   1
 d    1 1.00
                  0.65                   1

[5d]
[7f]
[9g]

[MO]
 Sym= A
 Ene=               0
 Spin= Alpha
 Occup=    1.00000
   1    -0.0065578472749851
   2     0.018422374450787
   3    -0.092580895028019
   4    -0.0094755267134442
   5    0.0032505945570995
   6    -0.011690742985714
   7    9.3780768083201e-05
   8    -0.0047209181692504
   9     0.038601482400023
  10    -0.0003116748065635
  11     0.015798955398198
  12    -0.031472943883577
  13    0.0012524897787386
  14     -0.03215940165033
  15    -0.011418170737752
  16      0.03621454966427
  17    0.0029959583761834
  18     0.034043462863449
  19    0.0008593301864621
  20    -0.0073126763037486
  21     0.026113424500751
  22     0.003657562057749
  23     0.022219938285854
  24    0.00057985039663741
  25    0.0013476610420177
  26    0.00067679043915348
  27    0.0005539705809935
  28    -0.0022355662790815
  29    -0.00013110240336964
  30    -0.002198798664196
  31    0.00019707447050148
  32     -0.13171101043322
  33      0.52260953247679
  34      0.40119039282453
  35    3.507226419801e-17
  36    8.7512019422666e-17
  37     -0.04992944110223
  38    1.1131785303505e-17
  39    7.4958185419056e-17
  40    -0.033705262257236
  41    -0.0065939381422464
  42    8.8046025050049e-20
  43    1.5492153025725e-18
  44     0.011978159774778
  45    -0.00019398545755712
  46    -0.0065578472749851
  47     0.018422374450787
  48    -0.092580895028019
  49    -0.009475526713444
  50    0.0032505945570994
  51     0.011690742985714
  52    -9.3780768083207e-05
  53    -0.0047209181692504
  54    -0.038601482400023
  55    0.00031167480656347
  56     0.015798955398198
  57     0.031472943883577
  58    -0.0012524897787386
  59     -0.03215940165033
  60    -0.011418170737752
  61     -0.03621454966427
  62    -0.0029959583761837
  63     0.034043462863449
  64    0.00085933018646201
  65    -0.0073126763037486
  66    -0.026113424500751
  67    -0.003657562057749
  68     0.022219938285854
  69    0.0005798503966374
  70    0.0013476610420177
  71    -0.00067679043915348
  72    -0.00055397058099349
  73    -0.0022355662790815
  74    -0.00013110240336964
  75     0.002198798664196
  76    -0.00019707447050148
  77    -0.0025153872206464
  78     0.017165017369399
  79    -0.034395582379326
  80    -0.011272975623643
  81     0.004542541695224
  82    -0.0070489745788144
  83     0.012293129285524
  84    0.0077314396810767
  85    -0.014220266733795
  86     0.024550335991227
  87     0.014460386042599
  88    -0.015320105109736
  89     0.029141619558008
  90    -0.001448205369881
  91    -0.00066404947697673
  92    0.0016668976867271
  93    0.00044804496637483
  94    0.00052095023732335
  95    -0.0025928164134152
  96     0.017653600379251
  97    -0.033193894203566
  98    -0.023486876153588
  99     0.011537901763664
 100    -0.0049637877741089
 101    -0.0081567545672076
 102     0.021381977412547
 103    -0.0099401817365951
 104    -0.016432915133119
 105     0.035884766378141
 106    -0.015468680368845
 107    -0.022772826229545
 108    -0.00080879159482514
 109    0.0024181014005407
 110    -0.0017087958789326
 111    0.00011289744723042
 112    0.0013916358105449
 113    -0.0026136894392316
 114     0.017737707294859
 115    -0.032964405462804
 116    -0.021656044077005
 117    0.0086743695167654
 118     0.012550686306006
 119    -0.0035105183331638
 120     0.015598063834729
 121     0.024535107587609
 122    -0.0069722281397381
 123     0.026560355250147
 124     0.036124105447251
 125    -0.008027369439941
 126    0.00094841030800549
 127    0.00076350207725458
 128    0.0011922999630194
 129     0.002246780300118
 130    -0.0012504245379064
 131    -0.0025153872206464
 132     0.017165017369399
 133    -0.034395582379326
 134    -0.011272975623643
 135    -0.004542541695224
 136    0.0070489745788144
 137     0.012293129285524
 138    -0.0077314396810768
 139     0.014220266733795
 140     0.024550335991227
 141    -0.014460386042599
 142     0.015320105109736
 143     0.029141619558008
 144    -0.001448205369881
 145    0.00066404947697672
 146    -0.0016668976867271
 147    0.00044804496637483
 148    0.00052095023732335
 149    -0.0025928164134152
 150     0.017653600379251
 151    -0.033193894203565
 152    -0.023486876153588
 153    -0.011537901763664
 154    0.0049637877741089
 155    -0.0081567545672075
 156    -0.021381977412547
 157     0.009940181736595
 158    -0.016432915133119
 159    -0.035884766378141
 160     0.015468680368845
 161    -0.022772826229545
 162    -0.00080879159482514
 163    -0.0024181014005407
 164    0.0017087958789326
 165    0.00011289744723043
 166    0.0013916358105449
 167    -0.0026136894392316
 168     0.017737707294859
 169    -0.032964405462803
 170    -0.021656044077005
 171    -0.0086743695167653
 172    -0.012550686306006
 173    -0.0035105183331638
 174    -0.015598063834729
 175    -0.024535107587609
 176    -0.0069722281397381
 177    -0.026560355250147
 178     -0.03612410544725
 179    -0.0080273694399409
 180    0.00094841030800549
 181    -0.00076350207725458
 182    -0.0011922999630194
 183     0.002246780300118
 184    -0.0012504245379064
 Sym= B
 Ene=               1
 Spin= Alpha
 Occup=    1.00000
   1    0.0018323293538217
   2    -0.0051643313745438
   3     0.025902457180056
   4    -0.011984236637562
   5    0.0048740462878216
   6    0.0047151357151347
   7    -0.012647789129843
   8    0.0011344090154659
   9    -0.015977049827392
  10     0.041082964895436
  11    -0.0039730852730856
  12     0.016446306090385
  13    -0.090150054690391
  14    0.0044866274507675
  15     0.001418472917628
  16    -0.016480081770322
  17     0.025677247537493
  18    -0.034539558276725
  19      0.11148203172209
  20    0.0023470346541845
  21    -0.007779619396218
  22     0.016224861623874
  23    -0.016210917445473
  24     0.071189519697495
  25    -0.00048194614476107
  26    -0.00035269456200289
  27    0.00063205708958006
  28    0.00093262056682229
  29    -0.0019782055759536
  30    0.00074212180642555
  31    -0.0041426691143481
  32    -5.1453661057619e-17
  33    -4.7576667501632e-17
  34    -3.5460151198668e-17
  35     -0.10203651342094
  36     -0.54736267147975
  37    9.9246800487293e-16
  38    -0.082661453804965
  39     -0.47142124220982
  40    8.5379814141175e-16
  41    2.1961137770756e-17
  42    -0.0027856714092138
  43    -0.011231847738693
  44    2.0467014322352e-18
  45    -1.2714658810595e-18
  46    -0.0018323293538217
  47    0.0051643313745438
  48    -0.025902457180057
  49     0.011984236637562
  50    -0.0048740462878217
  51    0.0047151357151347
  52    -0.012647789129843
  53    -0.0011344090154658
  54    -0.015977049827392
  55     0.041082964895436
  56    0.0039730852730855
  57     0.016446306090386
  58    -0.090150054690391
  59    -0.0044866274507672
  60    -0.0014184729176286
  61    -0.016480081770322
  62     0.025677247537493
  63     0.034539558276726
  64     -0.11148203172209
  65    -0.0023470346541847
  66    -0.0077796193962178
  67     0.016224861623874
  68     0.016210917445473
  69    -0.071189519697495
  70    0.00048194614476107
  71    -0.0003526945620029
  72    0.00063205708958006
  73    -0.00093262056682229
  74    0.0019782055759536
  75    0.00074212180642556
  76    -0.0041426691143481
  77    -0.0003468708225575
  78    0.0021966413325541
  79    -0.0011604052232631
  80    -0.013209371460132
  81    0.0034750360372018
  82    0.0033090520115265
  83    0.0034044440506691
  84    0.0069591495450564
  85    0.0055454938553783
  86    0.0048110324469563
  87    0.0064451529037416
  88    0.0098839040574918
  89     0.019431650743002
  90    -0.00065767057832351
  91    0.0021079667662273
  92    0.0009281602468004
  93    0.00088581281823678
  94    7.7398597644043e-05
  95    -0.00022375354795883
  96     0.001324987677954
  97    0.00066773618226563
  98    -0.012610217743098
  99    0.0031437682585774
 100    0.0022040553706504
 101    -0.0012751682894143
 102    0.0053805223866315
 103    0.0035394104926209
 104    -0.00092045658966685
 105     0.011772667289918
 106    0.0083424404284908
 107    -0.012066784558812
 108    -0.0017934724874945
 109    0.00014404215232176
 110    -0.00028941553449278
 111    0.00070264806118302
 112    0.00046807320351491
 113    0.0021232458911638
 114    -0.014106710123024
 115     0.022429236796303
 116     0.026794044897576
 117    -0.012244688499352
 118    -0.0090916733105761
 119    0.0020462087873526
 120    -0.022537789331369
 121    -0.015582328835591
 122    0.0027514117446813
 123    -0.034632077079012
 124    -0.036355245445404
 125     0.011871035294777
 126    0.0013458922294777
 127    -0.00050113270672759
 128    -0.0022066056233562
 129    -0.0046547919931464
 130    -0.0029111380767706
 131    0.0003468708225575
 132    -0.0021966413325541
 133    0.0011604052232631
 134     0.013209371460132
 135    0.0034750360372018
 136    0.0033090520115265
 137    -0.0034044440506691
 138    0.0069591495450563
 139    0.0055454938553783
 140    -0.0048110324469563
 141    0.0064451529037415
 142    0.0098839040574919
 143    -0.019431650743002
 144    0.00065767057832349
 145    0.0021079667662273
 146    0.0009281602468004
 147    -0.00088581281823677
 148    -7.7398597644048e-05
 149    0.00022375354795883
 150    -0.001324987677954
 151    -0.00066773618226565
 152     0.012610217743098
 153    0.0031437682585774
 154    0.0022040553706504
 155    0.0012751682894143
 156    0.0053805223866315
 157    0.0035394104926209
 158    0.00092045658966686
 159     0.011772667289918
 160    0.0083424404284907
 161     0.012066784558812
 162    0.0017934724874945
 163    0.00014404215232177
 164    -0.00028941553449279
 165    -0.00070264806118303
 166    -0.00046807320351491
 167    -0.0021232458911638
 168     0.014106710123024
 169    -0.022429236796303
 170    -0.026794044897576
 171    -0.012244688499352
 172    -0.0090916733105761
 173    -0.0020462087873526
 174    -0.022537789331369
 175    -0.015582328835591
 176    -0.0027514117446813
 177    -0.034632077079012
 178    -0.036355245445404
 179    -0.011871035294777
 180    -0.0013458922294777
 181    -0.00050113270672759
 182    -0.0022066056233562
 183    0.0046547919931464
 184    0.0029111380767706
 Sym= A
 Ene=               2
 Spin= Alpha
 Occup=    1.00000
   1    0.0041064169976642
   2    -0.011517442620255
   3     0.058237178644203
   4    -0.045584143584834
   5     0.030046771268157
   6     0.013061785843325
   7    -0.00053592410047677
   8    -0.0093730835232505
   9    -0.043740533921625
  10    0.0016279571846923
  11     0.030016971285119
  12     0.058417736072779
  13    0.0017043502221973
  14    -0.081488147809907
  15     0.077145668206234
  16     0.058539748675353
  17    -0.013320147178041
  18    -0.080152684356871
  19     0.003678632691682
  20     0.043206528699927
  21     0.043642804819271
  22    -0.0049448950348518
  23    -0.042821169680955
  24    0.0019044898956441
  25    0.00089456914055367
  26    -0.0037035162507573
  27    -0.0003701313512074
  28    -0.001493792544844
  29    -3.4870301702816e-05
  30     0.002539846502286
  31    -2.1554572918821e-05
  32     0.022042522758458
  33    0.0030925867693784
  34    0.0016525475878492
  35    -1.7010347333941e-14
  36    2.6586213343325e-15
  37     -0.54659170026934
  38    -1.4022528864627e-14
  39    2.2995982359506e-15
  40     -0.47083930351032
  41    -0.011910953485626
  42    -4.5171762318672e-16
  43    5.1142508571972e-17
  44    -0.0017180040796767
  45    -0.00010541628683314
  46    0.0041064169976635
  47    -0.011517442620253
  48     0.058237178644193
  49    -0.045584143584828
  50     0.030046771268157
  51    -0.013061785843324
  52    0.00053592410047702
  53    -0.0093730835232511
  54     0.043740533921619
  55    -0.0016279571846928
  56     0.030016971285121
  57    -0.058417736072774
  58    -0.0017043502221962
  59    -0.081488147809908
  60      0.07714566820623
  61    -0.058539748675359
  62     0.013320147178041
  63    -0.080152684356862
  64    0.0036786326916831
  65     0.043206528699925
  66    -0.043642804819274
  67    0.0049448950348516
  68    -0.042821169680951
  69    0.0019044898956449
  70    0.00089456914055384
  71    0.0037035162507572
  72    0.00037013135120735
  73    -0.0014937925448443
  74    -3.4870301702844e-05
  75    -0.0025398465022857
  76    2.1554572918847e-05
  77    0.0024097158950517
  78    -0.016131768155607
  79     0.028717892944302
  80      0.02285573908078
  81    -0.010890021198485
  82    0.0086572751296758
  83    -0.012135380190599
  84    -0.019818413772772
  85     0.014669303975221
  86     -0.02191201324431
  87    -0.030060594417383
  88      0.03257218560581
  89    -0.040548457632953
  90    0.0019114713125717
  91    -0.0025130269866038
  92    -0.0018102126787972
  93    -0.0025538153721442
  94    0.0014684217571941
  95    -8.4593242560085e-05
  96    0.00019949756732108
  97    0.0067311452617872
  98    -0.026403050359726
  99    0.0029859582964179
 100    -0.00087048740114199
 101     0.002717260416381
 102     0.005090203385868
 103    -0.00017439995975893
 104    0.0060424100472604
 105      0.01288855003116
 106    -0.011830256186957
 107    -0.00057181470578629
 108    -0.0016871250321473
 109    0.00056903907641314
 110    -0.0014959127453033
 111    0.0020687044072731
 112    -0.00057901325653317
 113    0.00065095687501723
 114    -0.0045564074920029
 115     0.013207221873576
 116    -0.011986303595309
 117    -0.0024793381666477
 118    -0.0036640270356629
 119    0.0059470148812424
 120    -0.0040112530266695
 121    -0.0080425164244819
 122      0.01016310976512
 123    -0.0083523451010124
 124    -0.00051901372125406
 125     0.018954612459684
 126    0.00029988356320923
 127    0.0010417512106697
 128    0.0004216814289715
 129    0.00038787847830187
 130      0.00104638029918
 131    0.0024097158950516
 132    -0.016131768155606
 133       0.0287178929443
 134     0.022855739080778
 135     0.010890021198485
 136    -0.0086572751296754
 137    -0.012135380190598
 138     0.019818413772772
 139     -0.01466930397522
 140    -0.021912013244308
 141     0.030060594417382
 142    -0.032572185605809
 143     -0.04054845763295
 144    0.0019114713125716
 145    0.0025130269866037
 146    0.0018102126787972
 147    -0.0025538153721441
 148    0.0014684217571941
 149    -8.459324256026e-05
 150    0.00019949756732226
 151    0.0067311452617849
 152    -0.026403050359726
 153    -0.0029859582964189
 154    0.00087048740114233
 155    0.0027172604163804
 156    -0.0050902033858698
 157    0.00017439995975962
 158    0.0060424100472593
 159    -0.012888550031163
 160     0.011830256186958
 161    -0.00057181470578757
 162    -0.0016871250321474
 163    -0.00056903907641318
 164    0.0014959127453034
 165    0.0020687044072732
 166    -0.00057901325653319
 167    0.00065095687501708
 168    -0.0045564074920019
 169     0.013207221873574
 170     -0.01198630359531
 171    0.0024793381666472
 172     0.003664027035662
 173    0.0059470148812422
 174    0.0040112530266686
 175    0.0080425164244802
 176      0.01016310976512
 177    0.0083523451010107
 178    0.00051901372125194
 179     0.018954612459683
 180    0.00029988356320919
 181    -0.0010417512106698
 182    -0.00042168142897154
 183    0.00038787847830194
 184    0.0010463802991801
 Sym= B
 Ene=               3
 Spin= Alpha
 Occup=    1.00000
   1    0.0099410149739308
   2    -0.027853125799238
   3      0.14118675452204
   4    -0.090119655460504
   5    0.0030167681286417
   6     0.024324312627964
   7    0.0025953017048797
   8    0.0086613305688996
   9    -0.082455822412002
  10    -0.0084492003688348
  11    -0.029076035809607
  12     0.083070398157646
  13     0.020264389492625
  14     0.015862264882058
  15     0.056122235275584
  16     -0.10290455603756
  17    -0.010236982531173
  18     -0.12875502746109
  19    -0.022302816523132
  20     0.026443624247817
  21    -0.049135737447924
  22    -0.0053598548263658
  23    -0.061334190044579
  24    -0.014480992938692
  25    -0.0025777091479243
  26    -0.0013584990809631
  27    -0.00068821823217175
  28    0.0039291868841323
  29    0.00052271936222381
  30    0.0040850060223268
  31    0.00057195576329107
  32    -7.1468929447669e-16
  33    -1.1627355245145e-16
  34    -5.9897506707186e-17
  35     -0.51634963620667
  36      0.10440166916788
  37    1.7914096493347e-14
  38     -0.42577722486323
  39     0.090276267316307
  40    1.5438141129773e-14
  41    3.8958315942091e-16
  42    -0.013665954685028
  43    0.0020344177962155
  44    5.7229682400365e-17
  45    4.1709241256234e-18
  46    -0.0099410149739309
  47     0.027853125799239
  48     -0.14118675452204
  49     0.090119655460508
  50    -0.0030167681286437
  51     0.024324312627965
  52    0.0025953017048796
  53    -0.008661330568899
  54    -0.082455822412004
  55    -0.0084492003688347
  56     0.029076035809605
  57      0.08307039815765
  58     0.020264389492625
  59    -0.015862264882053
  60    -0.056122235275589
  61     -0.10290455603756
  62    -0.010236982531174
  63      0.12875502746109
  64     0.022302816523131
  65    -0.026443624247819
  66    -0.049135737447922
  67    -0.0053598548263661
  68     0.061334190044582
  69     0.014480992938691
  70    0.0025777091479242
  71    -0.0013584990809634
  72    -0.00068821823217177
  73    -0.0039291868841322
  74    -0.00052271936222381
  75     0.004085006022327
  76    0.00057195576329107
  77    0.0022391648374653
  78    -0.014989978053005
  79     0.024977157519823
  80     0.026377039657297
  81    -0.0036317452536936
  82    0.0063234439626558
  83    -0.013318800424235
  84    -0.0061971775992077
  85     0.011745103097077
  86    -0.024347369663205
  87    -0.014000213608919
  88     0.018694911361529
  89    -0.041286113136631
  90    0.00083905596514903
  91    -0.00062856863669928
  92    -0.00085522614921621
  93    -0.00084123831758682
  94    -0.00024539381610967
  95     0.002736893780785
  96    -0.018413726678454
  97     0.034991238438583
  98     0.015318234895625
  99    -0.015385725030858
 100    0.0053523368244781
 101    0.0088367509388232
 102    -0.028233565534415
 103      0.01092659494301
 104     0.017031085083839
 105    -0.042086415414432
 106    0.0099787823545552
 107     0.020940418784557
 108    0.0016082727303528
 109    -0.00067160317972117
 110    0.00038372970638089
 111    -0.001978800152996
 112    0.00024776246627587
 113    0.0021901563347701
 114    -0.014716830065126
 115     0.027367207024701
 116     0.013202268451331
 117    -0.0074016845458553
 118    -0.012726459490077
 119    0.0027064291290229
 120    -0.012762524861484
 121     -0.02447044369442
 122    0.0051652168196001
 123    -0.024460432109648
 124    -0.029568818411146
 125     0.005881940234368
 126    0.0005122444762775
 127    -0.000704695215925
 128    -0.00040944649674969
 129    -0.00086926427040365
 130    -0.00087017206910641
 131    -0.0022391648374652
 132     0.014989978053006
 133    -0.024977157519825
 134    -0.026377039657299
 135    -0.0036317452536943
 136    0.0063234439626563
 137     0.013318800424236
 138    -0.006197177599209
 139     0.011745103097077
 140     0.024347369663207
 141    -0.014000213608921
 142     0.018694911361531
 143     0.041286113136633
 144    -0.00083905596514915
 145    -0.00062856863669945
 146    -0.00085522614921632
 147    0.00084123831758698
 148    0.00024539381610958
 149    -0.002736893780785
 150     0.018413726678454
 151    -0.034991238438583
 152    -0.015318234895623
 153    -0.015385725030858
 154    0.0053523368244781
 155    -0.0088367509388234
 156    -0.028233565534415
 157      0.01092659494301
 158     -0.01703108508384
 159    -0.042086415414431
 160    0.0099787823545544
 161    -0.020940418784557
 162    -0.0016082727303527
 163    -0.00067160317972112
 164    0.00038372970638079
 165    0.0019788001529959
 166    -0.00024776246627584
 167    -0.0021901563347702
 168     0.014716830065126
 169    -0.027367207024702
 170     -0.01320226845133
 171    -0.0074016845458554
 172    -0.012726459490078
 173    -0.0027064291290233
 174    -0.012762524861485
 175    -0.024470443694421
 176    -0.0051652168196008
 177    -0.024460432109649
 178    -0.029568818411146
 179    -0.0058819402343692
 180    -0.00051224447627753
 181    -0.00070469521592493
 182    -0.00040944649674965
 183    0.00086926427040363
 184    0.00087017206910634
