[Molden Format]
made by pyscf v[2.1.1]
[Atoms] (AU)
Fe   1   26     3.17068844873907     0.00098706064664     0.12237737881307
O   2   8     0.00000000000000     0.00000000000000    -0.89004350580623
Fe   3   26    -3.17068844873907    -0.00098706064664     0.12237737881307
Cl   4   17     3.53383895113107    -2.07485195383062     3.76228752659000
Cl   5   17     5.54152580550813    -1.85590924879884    -2.78672786652360
Cl   6   17     4.48169216485503     3.92976278472880    -0.95330240907949
Cl   7   17    -3.53383895113107     2.07485195383062     3.76228752659000
Cl   8   17    -5.54152580550813     1.85590924879884    -2.78672786652360
Cl   9   17    -4.48169216485503    -3.92976278472880    -0.95330240907949
[GTO]
1 0
 s    6 1.00
          60923.640643  0.0017552243692958
          9147.8893982   0.013449023284001
          2081.3505927   0.066678874640978
          587.55977067    0.23176348548844
           191.0904399    0.46945550248188
          65.732730112     0.3596824938678
 s    3 1.00
          127.25891928   -0.10723431835929
           14.83091301    0.62971616328466
          6.0653307408    0.44472317896179
 s    3 1.00
           10.44994371   -0.21694289195548
          1.7245228003    0.69457867408393
         0.71772177325    0.43298308896347
 s    1 1.00
        0.091449828308                   1
 s    1 1.00
        0.033706691021                   1
 p    5 1.00
          773.43750995  0.0091440529992506
          182.15149714   0.067887577136571
          57.547272758    0.26167978878504
          20.614988935    0.51088040113251
           7.634855789    0.33235475570224
 p    3 1.00
           3.871932799    0.33193859098144
          1.4924724132     0.5553666555499
         0.56061284958    0.23106034201617
 p    1 1.00
              0.134915                   1
 d    4 1.00
          38.968133419   0.033335938558743
          10.800067078    0.17766212505983
          3.6136457999      0.441281781625
          1.2129967888    0.57089200490673
 d    1 1.00
          0.3652439317                   1
 f    1 1.00
                 1.598                   1

2 0
 s    5 1.00
          2266.1767785  -0.0053893503921743
          340.87010191   -0.04023472138896
          77.363135167   -0.18008184205526
           21.47964494   -0.46828857657651
          6.6589433124   -0.44692617160187
 s    1 1.00
         0.80975975668                   1
 s    1 1.00
         0.25530772234                   1
 p    3 1.00
          17.721504317   0.062630248763161
           3.863550544    0.33331138482352
          1.0480920883    0.74148638308122
 p    1 1.00
         0.27641544411                   1
 d    1 1.00
                   1.2                   1

3 0
 s    6 1.00
          60923.640643  0.0017552243692958
          9147.8893982   0.013449023284001
          2081.3505927   0.066678874640978
          587.55977067    0.23176348548844
           191.0904399    0.46945550248188
          65.732730112     0.3596824938678
 s    3 1.00
          127.25891928   -0.10723431835929
           14.83091301    0.62971616328466
          6.0653307408    0.44472317896179
 s    3 1.00
           10.44994371   -0.21694289195548
          1.7245228003    0.69457867408393
         0.71772177325    0.43298308896347
 s    1 1.00
        0.091449828308                   1
 s    1 1.00
        0.033706691021                   1
 p    5 1.00
          773.43750995  0.0091440529992506
          182.15149714   0.067887577136571
          57.547272758    0.26167978878504
          20.614988935    0.51088040113251
           7.634855789    0.33235475570224
 p    3 1.00
           3.871932799    0.33193859098144
          1.4924724132     0.5553666555499
         0.56061284958    0.23106034201617
 p    1 1.00
              0.134915                   1
 d    4 1.00
          38.968133419   0.033335938558743
          10.800067078    0.17766212505983
          3.6136457999      0.441281781625
          1.2129967888    0.57089200490673
 d    1 1.00
          0.3652439317                   1
 f    1 1.00
                 1.598                   1

4 0
 s    5 1.00
          10449.827566  0.0054265953789407
          1571.7365221   0.040626378128836
          357.12065523    0.18359747852877
          100.25185935    0.47438948768198
          30.812727554    0.43735181104122
 s    3 1.00
          51.923789434  -0.092754154848099
          5.7045760975    0.56380825544207
          2.3508376809    0.50367044629712
 s    1 1.00
         0.44605124672                   1
 s    1 1.00
          0.1684885619                   1
 p    5 1.00
          307.66790569  -0.0088797025588865
          72.102015515  -0.064284071721237
          22.532680262   -0.24288739736006
          7.8991765444   -0.48340836369878
          2.8767268321   -0.38952563875509
 p    1 1.00
         0.77459363955                   1
 p    1 1.00
         0.21037699698                   1
 d    1 1.00
                  0.65                   1

5 0
 s    5 1.00
          10449.827566  0.0054265953789407
          1571.7365221   0.040626378128836
          357.12065523    0.18359747852877
          100.25185935    0.47438948768198
          30.812727554    0.43735181104122
 s    3 1.00
          51.923789434  -0.092754154848099
          5.7045760975    0.56380825544207
          2.3508376809    0.50367044629712
 s    1 1.00
         0.44605124672                   1
 s    1 1.00
          0.1684885619                   1
 p    5 1.00
          307.66790569  -0.0088797025588865
          72.102015515  -0.064284071721237
          22.532680262   -0.24288739736006
          7.8991765444   -0.48340836369878
          2.8767268321   -0.38952563875509
 p    1 1.00
         0.77459363955                   1
 p    1 1.00
         0.21037699698                   1
 d    1 1.00
                  0.65                   1

6 0
 s    5 1.00
          10449.827566  0.0054265953789407
          1571.7365221   0.040626378128836
          357.12065523    0.18359747852877
          100.25185935    0.47438948768198
          30.812727554    0.43735181104122
 s    3 1.00
          51.923789434  -0.092754154848099
          5.7045760975    0.56380825544207
          2.3508376809    0.50367044629712
 s    1 1.00
         0.44605124672                   1
 s    1 1.00
          0.1684885619                   1
 p    5 1.00
          307.66790569  -0.0088797025588865
          72.102015515  -0.064284071721237
          22.532680262   -0.24288739736006
          7.8991765444   -0.48340836369878
          2.8767268321   -0.38952563875509
 p    1 1.00
         0.77459363955                   1
 p    1 1.00
         0.21037699698                   1
 d    1 1.00
                  0.65                   1

7 0
 s    5 1.00
          10449.827566  0.0054265953789407
          1571.7365221   0.040626378128836
          357.12065523    0.18359747852877
          100.25185935    0.47438948768198
          30.812727554    0.43735181104122
 s    3 1.00
          51.923789434  -0.092754154848099
          5.7045760975    0.56380825544207
          2.3508376809    0.50367044629712
 s    1 1.00
         0.44605124672                   1
 s    1 1.00
          0.1684885619                   1
 p    5 1.00
          307.66790569  -0.0088797025588865
          72.102015515  -0.064284071721237
          22.532680262   -0.24288739736006
          7.8991765444   -0.48340836369878
          2.8767268321   -0.38952563875509
 p    1 1.00
         0.77459363955                   1
 p    1 1.00
         0.21037699698                   1
 d    1 1.00
                  0.65                   1

8 0
 s    5 1.00
          10449.827566  0.0054265953789407
          1571.7365221   0.040626378128836
          357.12065523    0.18359747852877
          100.25185935    0.47438948768198
          30.812727554    0.43735181104122
 s    3 1.00
          51.923789434  -0.092754154848099
          5.7045760975    0.56380825544207
          2.3508376809    0.50367044629712
 s    1 1.00
         0.44605124672                   1
 s    1 1.00
          0.1684885619                   1
 p    5 1.00
          307.66790569  -0.0088797025588865
          72.102015515  -0.064284071721237
          22.532680262   -0.24288739736006
          7.8991765444   -0.48340836369878
          2.8767268321   -0.38952563875509
 p    1 1.00
         0.77459363955                   1
 p    1 1.00
         0.21037699698                   1
 d    1 1.00
                  0.65                   1

9 0
 s    5 1.00
          10449.827566  0.0054265953789407
          1571.7365221   0.040626378128836
          357.12065523    0.18359747852877
          100.25185935    0.47438948768198
          30.812727554    0.43735181104122
 s    3 1.00
          51.923789434  -0.092754154848099
          5.7045760975    0.56380825544207
          2.3508376809    0.50367044629712
 s    1 1.00
         0.44605124672                   1
 s    1 1.00
          0.1684885619                   1
 p    5 1.00
          307.66790569  -0.0088797025588865
          72.102015515  -0.064284071721237
          22.532680262   -0.24288739736006
          7.8991765444   -0.48340836369878
          2.8767268321   -0.38952563875509
 p    1 1.00
         0.77459363955                   1
 p    1 1.00
         0.21037699698                   1
 d    1 1.00
                  0.65                   1

[5d]
[7f]
[9g]

[MO]
 Sym= A
 Ene=               0
 Spin= Alpha
 Occup=    1.00000
   1     0.011513160365682
   2     -0.02461938424253
   3       0.1939688120588
   4      0.20675996242464
   5    -0.069156658617691
   6    -0.045809015570371
   7    -0.0012907016626136
   8    -0.017291260162344
   9       0.1481948646899
  10    0.0039822255404153
  11     0.055595771664317
  12     0.068741145325476
  13    5.7845332636872e-05
  14     0.014877549915865
  15     0.011723564920388
  16    -0.013304700870188
  17    -0.013345985376681
  18    -0.016131802670298
  19    -0.0013528151884003
  20     0.010670873143407
  21    -0.013097527500311
  22    -0.0091604935693886
  23    -0.017363659296528
  24    -0.00088431539492092
  25    0.0015660507136555
  26    0.00093043742590007
  27    -0.0022049936341446
  28    -0.00093431650736445
  29    0.0004043527190725
  30    -0.0015806443017148
  31    -0.00076365208594443
  32     -0.44337355056577
  33      0.12704833725747
  34     0.092453057398646
  35    1.7275399306562e-05
  36    -0.00066385734856388
  37    -0.0086297219414048
  38     0.015821365826664
  39    -0.001900776673496
  40    -0.002525812697619
  41    -0.0017683712600587
  42    0.0011395138678376
  43    -9.0073986213287e-05
  44    0.0035850419132512
  45    -9.6937469799293e-05
  46    -0.013728687759974
  47     0.041896938670938
  48     -0.18054646613982
  49    -0.047873677488059
  50     0.032350104780175
  51     0.050994038896051
  52    0.00033469440153586
  53    -0.016260980360361
  54     -0.16744374475995
  55    -0.0010442975985825
  56      0.05357899043011
  57     0.024267014956697
  58    0.0012418563521831
  59    -0.011608186657156
  60    -0.0088050026602391
  61    -0.017405234246129
  62    -0.0040028271520324
  63     0.022257110103266
  64    0.00017429092571432
  65    -0.0055987310701868
  66    -0.013777155791237
  67    -0.0033568064058828
  68     0.015883651352046
  69    0.00013067013903518
  70    0.0001211788459744
  71    -2.3495627376755e-05
  72    -0.00062504620387011
  73    -0.00058315360260534
  74    -0.00010448779760006
  75    0.00035670002654839
  76    -0.0002703015478926
  77     0.011885469714718
  78    -0.082841376301921
  79      0.17336878507679
  80      0.10070264775569
  81     0.008372787506809
  82     0.029872803371511
  83    -0.043141093431432
  84     0.012116606680447
  85     0.062762619361551
  86    -0.094895951318507
  87     0.017266607550304
  88     0.085230086650937
  89     -0.12433773251215
  90      0.00892511199621
  91    6.0435155118041e-05
  92    -0.011364516444206
  93    -0.003736373934522
  94    -7.6178163364272e-05
  95     0.011443635202431
  96    -0.080139841141519
  97      0.17140581084212
  98     0.095809093817234
  99    -0.017234232517508
 100     0.019726152114894
 101     0.039907347343718
 102    -0.043226808038568
 103     0.045238966374565
 104     0.085175314633779
 105    -0.056452972327143
 106     0.053951879677335
 107      0.11146222665934
 108    0.0048951835786878
 109    -0.0092798963840417
 110     0.007990274084061
 111    0.00046684503999941
 112    -0.0053906935338523
 113     0.010630053985472
 114    -0.074497063124991
 115      0.15904111306955
 116     0.092488364388137
 117    -0.00076366043950634
 118    -0.042699187920147
 119      0.02182788116114
 120    -0.0082574619970177
 121    -0.094756582960923
 122     0.042280989982917
 123    -0.010454202662994
 124     -0.12200019382682
 125     0.062620255904269
 126    -0.0041930927006315
 127    -0.0015844897698826
 128    -0.0066016535775221
 129    -0.0091662533668411
 130      0.00438174012538
 131    -0.0017984016609553
 132     0.011832385585878
 133    -0.020536313167119
 134    -0.0077406807389237
 135    -0.0070460811899771
 136    0.0074590854062491
 137     0.016421372535798
 138    -0.011621639842715
 139      0.01367872575243
 140      0.02958935488319
 141    -0.016901680752881
 142     0.016766658693637
 143     0.039003611961802
 144    -0.0023505061437851
 145    0.00084961761258737
 146    -0.0023683052800234
 147    0.0007776660957797
 148    0.00053695087778447
 149    -0.0027990664128264
 150     0.018330966638639
 151    -0.028219134493923
 152    -0.020708550632167
 153    -0.022790840608492
 154    0.0068390727337534
 155    -0.0087228914244236
 156     -0.03959223637817
 157     0.012582599915298
 158    -0.016200102774644
 159     -0.06028812767523
 160     0.016710941723104
 161    -0.021122006690077
 162    -0.00040555930311415
 163    -0.0036530599960355
 164    0.0020357452874318
 165    -0.00073353136185951
 166    0.0023283385531361
 167    -0.0030300171939075
 168     0.019799261879446
 169     -0.03070024883377
 170    -0.019186369712526
 171    -0.019137717099135
 172     -0.01957307603413
 173    -0.0019479381713886
 174    -0.033017715098261
 175    -0.035085288154439
 176    -0.0037006485391385
 177    -0.049860524961042
 178    -0.048914992432874
 179    -0.0041711742709974
 180    0.0017594260230161
 181    -0.0009959639105964
 182    -0.0015299882052268
 183    0.0029228821960703
 184    -0.0027889852490156
 Sym= A
 Ene=               1
 Spin= Alpha
 Occup=    1.00000
   1    -0.001264683189467
   2    0.0037616826913379
   3     -0.01682486326249
   4     0.031478368935215
   5    -0.013862768031994
   6    -0.0006796140048276
   7    -0.0014715271289314
   8    0.0047792645527606
   9    0.0021525169589735
  10    0.0046474917741349
  11    -0.014842634612879
  12    -0.0022998854570522
  13    -0.0056907421619531
  14     0.021626296553397
  15     -0.20118348198605
  16      0.47913886614044
  17      0.48269264112881
  18     -0.43361529968403
  19     -0.28039857512891
  20    -0.054017304447208
  21      0.12849322409955
  22      0.13065870243013
  23     -0.11768568279731
  24    -0.075365555152174
  25    -0.0010615806638703
  26    0.0010605929180524
  27    0.00097996165698152
  28    0.00025220751106798
  29    0.00029313852902668
  30    -0.00088565498305448
  31    -0.0005703309441973
  32    -0.0019092909416382
  33    -0.0049916028135268
  34    -0.0026867877104022
  35    -0.0081585488903839
  36    -0.014075702769859
  37     0.048462504119374
  38    -0.0090165515129295
  39    -0.013743610942625
  40     0.047243057021921
  41    0.00017884384226523
  42    -0.0011890899261876
  43     0.000204288987289
  44    0.00011793003915008
  45    0.00019538551587439
  46    -0.00051378510482981
  47     0.001535400655753
  48    -0.0068348588447984
  49    0.0072634469401729
  50    -0.0012718096606382
  51    0.0023672683228721
  52    -0.00051671248666337
  53    0.00082810159551581
  54    -0.0075503935454743
  55    0.0016441225520194
  56    -0.0026443460710921
  57    0.0065103172700109
  58    -0.0030281241881597
  59    0.0083838673375924
  60    -0.0013585484355605
  61    0.00028990798133239
  62    2.7947196888742e-05
  63    0.0022012620506586
  64    -0.0004860016763192
  65    -0.0013718824224643
  66    0.0021472187455127
  67    0.00015705268355427
  68    0.00081978398034554
  69    -0.00080073125106348
  70    -5.1278410149965e-05
  71    -0.00038326908976944
  72    -1.7071512002649e-05
  73    9.3681754291589e-05
  74    6.1322856944564e-05
  75    0.00027351916117189
  76    -0.00011788289208668
  77     0.001370820207427
  78    -0.0089894093875198
  79      0.01138436897011
  80    0.0065634546594107
  81     -0.01809169030852
  82    0.0080124833624345
  83    -0.010019377661516
  84    -0.030680518312548
  85     0.013823136508839
  86    -0.017458437383184
  87    -0.050556924620033
  88     0.022174825159257
  89    -0.027825624809268
  90    0.00048876710823586
  91    -0.0019707698961907
  92    0.0004485118757394
  93    -0.00087351836036164
  94    0.0012439770512785
  95    -8.4395094317817e-05
  96    0.00057390729221246
  97    -0.0022629818783083
  98     0.004469465713128
  99     0.011809876575279
 100     0.025692838031588
 101    -0.0080053198408736
 102     0.019936983981106
 103     0.043304672386348
 104    -0.013351580798152
 105     0.031927569686434
 106     0.073863851063876
 107    -0.022213394782477
 108    0.00070550961761958
 109    -0.0013541626042946
 110    -0.001660331568738
 111    0.0020507517046415
 112    0.0012700212131042
 113    -0.00020322460720332
 114    0.0013458375644212
 115    -0.0030954462641552
 116     0.002581462423765
 117     0.013256527730979
 118    -0.0077670276794429
 119    -0.021914518831269
 120     0.022224738475382
 121    -0.013084771120253
 122    -0.036775696160397
 123     0.037172856366846
 124    -0.023040898419637
 125    -0.062080958939554
 126    0.00098902540196255
 127    -0.0012742692370953
 128    -0.0015500178912372
 129    0.0016742912760968
 130    0.00080016334032165
 131    -0.00021950679088155
 132    0.0014829944499153
 133    -0.0027683351771369
 134    -0.0014450835163695
 135    -0.0015145696605688
 136    0.00081690772024048
 137    0.0007545989535468
 138    -0.0027975047372617
 139    0.0013997997767976
 140    0.0013226980784787
 141    -0.0036448841729231
 142    0.0031990167693991
 143    0.0029874272314055
 144    -0.00010459106815872
 145    -0.00030530922546182
 146    5.2924014909469e-05
 147    0.00017263044929007
 148    -0.00024374393623542
 149    7.7899336451013e-05
 150    -0.00051258214455385
 151    0.00038518834874608
 152    0.0031976433516349
 153    0.0010694576108088
 154    7.3489279817031e-05
 155    -0.0006897180274429
 156    0.0018591818450938
 157    0.00017612083978593
 158    -0.0012404843286306
 159    0.0036207881046261
 160    -0.00079002926838513
 161    -0.00051165903731266
 162    4.2449373430434e-05
 163    0.00013691972402624
 164    -5.1748635202672e-05
 165    -9.2774006199617e-05
 166    -2.9159032546126e-05
 167    -9.7699011920997e-05
 168    0.00066157258449218
 169    -0.0013965254921922
 170    0.00028148595817332
 171    -0.00072359520910521
 172    -0.00038673047178393
 173    -0.00077906988476183
 174    -0.0013192675381189
 175    -0.00070823922336287
 176    -0.0012852794535657
 177    -0.0018942461756437
 178    -0.00088862260109717
 179    -0.0026545418070719
 180    -0.00010296882509409
 181    0.00013314254344114
 182    1.3302333593642e-05
 183    0.00010412101343514
 184    0.00017603607637834
 Sym= A
 Ene=               2
 Spin= Alpha
 Occup=    1.00000
   1    0.00083654313891202
   2    -0.0024886434164533
   3     0.011122777623495
   4    -0.021114902725487
   5    0.0074866881894613
   6    4.7690980310983e-05
   7    -0.0064852979596141
   8    -0.0032760008971429
   9    -0.00012722971891635
  10     0.019937743985874
  11     0.010003205459359
  12    -0.00094665177566787
  13    -0.028010355927257
  14    -0.015573596608584
  15     -0.52484436388748
  16     -0.15495703580388
  17     -0.46399915899429
  18     -0.13086866785542
  19     -0.48664990826364
  20      -0.1410241587899
  21     -0.04085336280448
  22     -0.12463761819653
  23    -0.034748621905367
  24     -0.12920360677068
  25    -0.00059747641481026
  26    -0.0013442057462297
  27    -0.00055440045647431
  28    -0.00066978275259627
  29    -0.0017015627227362
  30    -7.9496494240088e-05
  31    -0.0015096139292059
  32    0.0022667031701505
  33    0.0057659132680329
  34     0.003038277348182
  35    0.0087573271731864
  36    -0.074557538890809
  37    -0.041521174049754
  38    0.0098179446867311
  39    -0.071945483159906
  40    -0.040630792763521
  41    -0.00060973364495885
  42    0.0012249343299535
  43    -0.0011079349159201
  44    -0.00049701157235708
  45    0.0016928777286721
  46    0.0005038251838895
  47    -0.0014931855133272
  48     0.006756183708288
  49    -0.0081973937833224
  50    0.0019721133563459
  51    -0.0021220959997473
  52    -0.0021894276838393
  53    -0.00050219740828923
  54    0.0067708169787717
  55    0.0069688480730655
  56    0.0016094751501444
  57    -0.0053333537132964
  58    -0.013986574328198
  59    -0.0067976648589792
  60    0.0013784701995591
  61    0.0001867774812839
  62    0.00036484628075952
  63    -0.0017693577379651
  64    -0.0018047893326758
  65    0.0011960280057935
  66    -0.0018579550909297
  67    0.0011757992666436
  68    -0.00055744390247797
  69    -0.0047783757875986
  70    2.1927851453383e-05
  71    0.00032693243325167
  72    0.00014190272476703
  73    -0.00011352093409319
  74    0.0003442251148433
  75    -0.00026092336685668
  76    -0.00065281399166052
  77    -7.8768367106944e-05
  78    0.00051133732546479
  79    -0.00011456887148349
  80    -0.00097972638721215
  81    -0.0031694823792614
  82     0.022883919999521
  83     0.013936424996221
  84    -0.0053262668809616
  85     0.038595154338153
  86     0.023620468043311
  87    -0.0090166767641818
  88     0.065472487876859
  89     0.039889527520295
  90    0.0025941719717444
  91    -0.00043822646902573
  92    0.0013262169016491
  93    0.0014291780941691
  94    0.00011414882572724
  95    0.00043078021717644
  96    -0.002876041138412
  97    0.0053703067538718
  98    -0.0035236576319512
  99     -0.01626469520587
 100    0.0098743800563525
 101    -0.013848183369473
 102    -0.027610135629474
 103     0.016581861922573
 104    -0.023262273087811
 105    -0.043896942782634
 106     0.028284865242623
 107    -0.040311635610588
 108    0.0024054032061757
 109    2.303405035855e-05
 110    -5.7252171793379e-06
 111    -0.00087169048616206
 112    0.0012547646175111
 113    -0.0010907243608894
 114    0.0071449911623903
 115    -0.0094127021427367
 116    -0.0032977984549501
 117     0.015816239099289
 118     0.009026795367818
 119    0.0077945655833068
 120     0.026692635583295
 121     0.015486874502394
 122     0.013053754008164
 123     0.044065105558654
 124     0.024916443651581
 125     0.022722437021302
 126    -0.00094962996623895
 127    -0.00021342872297908
 128    0.0011545956495332
 129    0.00079544430288618
 130    0.0011693342065113
 131    0.00028589205519637
 132    -0.0018924091718836
 133    0.0025353220127535
 134    0.0052237833635263
 135     0.002383947152474
 136    4.6482692532822e-05
 137    -0.0019032309507742
 138    0.0041901163238705
 139    0.00012844379118634
 140    -0.0032248067736601
 141    0.0064218993704053
 142    -0.0011206294601302
 143    -0.0079110880722518
 144    3.3346281756241e-05
 145    0.0005301697900124
 146    5.6735604513217e-05
 147    -0.00028959407167955
 148    8.7625357055918e-05
 149    9.6631070885387e-05
 150    -0.00064883577367279
 151    0.0012539578044101
 152    0.00010509877760535
 153    0.00086375202949693
 154    0.00045189363298286
 155    0.00077900183833958
 156    0.0015500381278915
 157    0.00064216408738517
 158    0.0012516736168261
 159    0.0023840991195412
 160     0.002292379971521
 161    0.0028110026698211
 162    0.0001726549344545
 163    -0.00012315692476684
 164    1.9527214508946e-05
 165    -0.00012112877571471
 166    -2.4087086055631e-05
 167    -0.00026824162179503
 168    0.0017849994847397
 169    -0.0026011526726282
 170    -0.0044481052854538
 171    -0.0030005985886792
 172    -0.0008234363321715
 173    0.00082279499043841
 174    -0.0053877818871159
 175    -0.0013726923924933
 176    0.0014890042917588
 177    -0.0077108843812207
 178    -0.0045992801853537
 179    0.0013575242233957
 180    -0.00012543885728367
 181    -0.00021633180064949
 182    -0.00018528419300217
 183    0.00052252083449352
 184    0.00020511443904287
 Sym= A
 Ene=               3
 Spin= Alpha
 Occup=    1.00000
   1    0.00059840175529784
   2    -0.0017851835339744
   3    0.0079460516753455
   4    -0.0099564517039413
   5    -0.0018777478029924
   6    0.0023157272964958
   7    0.0045331840328376
   8    -0.0042663990644101
   9    -0.0071743578749167
  10    -0.014325753993929
  11     0.013574618445081
  12    0.0063374419280947
  13    0.0075956354218383
  14    -0.0061569183934739
  15      0.55588193812865
  16      0.37305156685497
  17     -0.30135315044233
  18      0.11365635818711
  19     -0.46206830605598
  20       0.1456049420121
  21      0.09623477863654
  22    -0.078745350964463
  23     0.031181317310597
  24     -0.11905453073259
  25    0.00019393059893307
  26    0.0018335817419893
  27    5.5347832869276e-05
  28    0.0015836523825058
  29    -0.0013347293138532
  30    -0.00022340203985436
  31    -0.0018704064598949
  32    -0.0050040988878189
  33    -0.011940650615091
  34    -0.0097417773510644
  35    -0.023543253123986
  36    -0.078897392887039
  37     0.071200602338933
  38    -0.026674726768818
  39    -0.077285552879489
  40     0.069402476073068
  41    0.0006844840605604
  42    -0.0020744995783887
  43    -0.0011067105588276
  44     0.001113934698157
  45    0.0018366655987187
  46    -0.0009725610130128
  47    0.0028800624991868
  48    -0.013060161068818
  49     0.014136610372079
  50    -0.0045523610210591
  51    0.0042446366966615
  52    -0.0025105758241567
  53    0.0010386082409727
  54    -0.013607415640803
  55    0.0079892769939072
  56    -0.0033329591442648
  57     0.012844302960486
  58    -0.015290361190616
  59     0.013527419466818
  60    -0.002269502146704
  61    -0.00058564276251723
  62    0.00039034945514901
  63    0.0041322208047303
  64    -0.001953613327713
  65    -0.0022045006335153
  66    0.0031584911584969
  67    0.0015554130463099
  68    0.0021159517122361
  69    -0.0050156001734031
  70    -2.2197533247448e-05
  71    -0.00058915699175049
  72    6.3287669017354e-05
  73    2.0602121442821e-05
  74    0.00036655924199881
  75    0.0004742807567629
  76    -0.00068920649850824
  77    -0.0036792722478008
  78     0.024113444554009
  79    -0.030093555612085
  80    -0.030368341080369
  81     -0.01052985778421
  82    -0.027797829628721
  83     0.029923804922206
  84    -0.017571664974565
  85    -0.047307988260539
  86     0.051342120853878
  87    -0.029875347933455
  88    -0.082998855481676
  89      0.09174024238907
  90    -0.0011877469028312
  91    -0.0018058064525341
  92    4.1815508450752e-05
  93    7.8343857560816e-07
  94    0.00041699746434545
  95    0.00048670895788724
  96    -0.0031582395724862
  97    0.0034241548418188
  98    0.0057901602495238
  99    -0.0006594796609166
 100    -0.0051720904161374
 101     0.011277713194373
 102    -0.0011586119118329
 103    -0.0089353937056214
 104     0.019220112095478
 105    -0.002673476428515
 106    -0.013344369837804
 107     0.032111015900557
 108    -0.00081934696110313
 109    0.0004430989348647
 110    0.00033939415721103
 111    -0.00037745126884177
 112    -0.001553901974556
 113    0.0028840487205012
 114    -0.018777514252999
 115     0.022578454897545
 116     0.025803199148838
 117    0.00054401760304633
 118    -0.029100613339384
 119     0.021818910842501
 120    0.00066102119703151
 121    -0.049100769104582
 122     0.036490205014075
 123    0.00016719890243203
 124    -0.087995861138073
 125     0.063892737758661
 126    -0.00070562034531269
 127    0.00026611611997855
 128    0.00015719504909068
 129    -0.0011054322098351
 130    0.0019099816745138
 131    -0.00016234300662943
 132    0.0010865559584232
 133    -0.0016443103305399
 134    -0.0023665958587445
 135    -0.00035719104474022
 136    0.0015048193581726
 137    0.00044153340657715
 138    -0.00061293973236202
 139    0.0023800253721225
 140    0.00080722585146274
 141    -0.0018410695730845
 142    0.0063642764241921
 143    0.0018663345367384
 144    -4.2490040170165e-05
 145    -0.00030323830248143
 146    0.00012827982989891
 147    4.8823899193766e-05
 148    -0.00030622228174895
 149    0.00018099175019591
 150    -0.0011889768889541
 151    0.00093630138814945
 152    0.0070829129351363
 153    0.0025816144191547
 154    0.00053553474081859
 155    -0.00091353048437871
 156    0.0045076662073557
 157    0.00098075662044964
 158    -0.0017722923322386
 159      0.00839844943707
 160    -0.00015144027179942
 161    0.00098759216505745
 162    0.00014843775031392
 163    0.00028094782994591
 164    -0.00012770662191774
 165    -0.00018595187283928
 166    -0.00015650335557013
 167    -0.00038945864780713
 168    0.0026100097616111
 169    -0.0045483837016383
 170    -0.002889251447243
 171    -0.0032258794073503
 172    -0.0014704972810747
 173    -0.00097142835325151
 174    -0.0057172751068874
 175    -0.0026250138074652
 176    -0.0014646547416619
 177    -0.0092177121640316
 178    -0.0051294078809193
 179    -0.0045348808774144
 180    -0.00037669884812359
 181    0.00010546286280712
 182    -0.00010291675939826
 183    0.00049541781181823