[Molden Format]
made by pyscf v[2.1.1]
[Atoms] (AU)
Fe   1   26     3.17068844873907     0.00098706064664     0.12237737881307
O   2   8     0.00000000000000     0.00000000000000    -0.89004350580623
Fe   3   26    -3.17068844873907    -0.00098706064664     0.12237737881307
Cl   4   17     3.53383895113107    -2.07485195383062     3.76228752659000
Cl   5   17     5.54152580550813    -1.85590924879884    -2.78672786652360
Cl   6   17     4.48169216485503     3.92976278472880    -0.95330240907949
Cl   7   17    -3.53383895113107     2.07485195383062     3.76228752659000
Cl   8   17    -5.54152580550813     1.85590924879884    -2.78672786652360
Cl   9   17    -4.48169216485503    -3.92976278472880    -0.95330240907949
[GTO]
1 0
 s    6 1.00
          60923.640643  0.0017552243692958
          9147.8893982   0.013449023284001
          2081.3505927   0.066678874640978
          587.55977067    0.23176348548844
           191.0904399    0.46945550248188
          65.732730112     0.3596824938678
 s    3 1.00
          127.25891928   -0.10723431835929
           14.83091301    0.62971616328466
          6.0653307408    0.44472317896179
 s    3 1.00
           10.44994371   -0.21694289195548
          1.7245228003    0.69457867408393
         0.71772177325    0.43298308896347
 s    1 1.00
        0.091449828308                   1
 s    1 1.00
        0.033706691021                   1
 p    5 1.00
          773.43750995  0.0091440529992506
          182.15149714   0.067887577136571
          57.547272758    0.26167978878504
          20.614988935    0.51088040113251
           7.634855789    0.33235475570224
 p    3 1.00
           3.871932799    0.33193859098144
          1.4924724132     0.5553666555499
         0.56061284958    0.23106034201617
 p    1 1.00
              0.134915                   1
 d    4 1.00
          38.968133419   0.033335938558743
          10.800067078    0.17766212505983
          3.6136457999      0.441281781625
          1.2129967888    0.57089200490673
 d    1 1.00
          0.3652439317                   1
 f    1 1.00
                 1.598                   1

2 0
 s    5 1.00
          2266.1767785  -0.0053893503921743
          340.87010191   -0.04023472138896
          77.363135167   -0.18008184205526
           21.47964494   -0.46828857657651
          6.6589433124   -0.44692617160187
 s    1 1.00
         0.80975975668                   1
 s    1 1.00
         0.25530772234                   1
 p    3 1.00
          17.721504317   0.062630248763161
           3.863550544    0.33331138482352
          1.0480920883    0.74148638308122
 p    1 1.00
         0.27641544411                   1
 d    1 1.00
                   1.2                   1

3 0
 s    6 1.00
          60923.640643  0.0017552243692958
          9147.8893982   0.013449023284001
          2081.3505927   0.066678874640978
          587.55977067    0.23176348548844
           191.0904399    0.46945550248188
          65.732730112     0.3596824938678
 s    3 1.00
          127.25891928   -0.10723431835929
           14.83091301    0.62971616328466
          6.0653307408    0.44472317896179
 s    3 1.00
           10.44994371   -0.21694289195548
          1.7245228003    0.69457867408393
         0.71772177325    0.43298308896347
 s    1 1.00
        0.091449828308                   1
 s    1 1.00
        0.033706691021                   1
 p    5 1.00
          773.43750995  0.0091440529992506
          182.15149714   0.067887577136571
          57.547272758    0.26167978878504
          20.614988935    0.51088040113251
           7.634855789    0.33235475570224
 p    3 1.00
           3.871932799    0.33193859098144
          1.4924724132     0.5553666555499
         0.56061284958    0.23106034201617
 p    1 1.00
              0.134915                   1
 d    4 1.00
          38.968133419   0.033335938558743
          10.800067078    0.17766212505983
          3.6136457999      0.441281781625
          1.2129967888    0.57089200490673
 d    1 1.00
          0.3652439317                   1
 f    1 1.00
                 1.598                   1

4 0
 s    5 1.00
          10449.827566  0.0054265953789407
          1571.7365221   0.040626378128836
          357.12065523    0.18359747852877
          100.25185935    0.47438948768198
          30.812727554    0.43735181104122
 s    3 1.00
          51.923789434  -0.092754154848099
          5.7045760975    0.56380825544207
          2.3508376809    0.50367044629712
 s    1 1.00
         0.44605124672                   1
 s    1 1.00
          0.1684885619                   1
 p    5 1.00
          307.66790569  -0.0088797025588865
          72.102015515  -0.064284071721237
          22.532680262   -0.24288739736006
          7.8991765444   -0.48340836369878
          2.8767268321   -0.38952563875509
 p    1 1.00
         0.77459363955                   1
 p    1 1.00
         0.21037699698                   1
 d    1 1.00
                  0.65                   1

5 0
 s    5 1.00
          10449.827566  0.0054265953789407
          1571.7365221   0.040626378128836
          357.12065523    0.18359747852877
          100.25185935    0.47438948768198
          30.812727554    0.43735181104122
 s    3 1.00
          51.923789434  -0.092754154848099
          5.7045760975    0.56380825544207
          2.3508376809    0.50367044629712
 s    1 1.00
         0.44605124672                   1
 s    1 1.00
          0.1684885619                   1
 p    5 1.00
          307.66790569  -0.0088797025588865
          72.102015515  -0.064284071721237
          22.532680262   -0.24288739736006
          7.8991765444   -0.48340836369878
          2.8767268321   -0.38952563875509
 p    1 1.00
         0.77459363955                   1
 p    1 1.00
         0.21037699698                   1
 d    1 1.00
                  0.65                   1

6 0
 s    5 1.00
          10449.827566  0.0054265953789407
          1571.7365221   0.040626378128836
          357.12065523    0.18359747852877
          100.25185935    0.47438948768198
          30.812727554    0.43735181104122
 s    3 1.00
          51.923789434  -0.092754154848099
          5.7045760975    0.56380825544207
          2.3508376809    0.50367044629712
 s    1 1.00
         0.44605124672                   1
 s    1 1.00
          0.1684885619                   1
 p    5 1.00
          307.66790569  -0.0088797025588865
          72.102015515  -0.064284071721237
          22.532680262   -0.24288739736006
          7.8991765444   -0.48340836369878
          2.8767268321   -0.38952563875509
 p    1 1.00
         0.77459363955                   1
 p    1 1.00
         0.21037699698                   1
 d    1 1.00
                  0.65                   1

7 0
 s    5 1.00
          10449.827566  0.0054265953789407
          1571.7365221   0.040626378128836
          357.12065523    0.18359747852877
          100.25185935    0.47438948768198
          30.812727554    0.43735181104122
 s    3 1.00
          51.923789434  -0.092754154848099
          5.7045760975    0.56380825544207
          2.3508376809    0.50367044629712
 s    1 1.00
         0.44605124672                   1
 s    1 1.00
          0.1684885619                   1
 p    5 1.00
          307.66790569  -0.0088797025588865
          72.102015515  -0.064284071721237
          22.532680262   -0.24288739736006
          7.8991765444   -0.48340836369878
          2.8767268321   -0.38952563875509
 p    1 1.00
         0.77459363955                   1
 p    1 1.00
         0.21037699698                   1
 d    1 1.00
                  0.65                   1

8 0
 s    5 1.00
          10449.827566  0.0054265953789407
          1571.7365221   0.040626378128836
          357.12065523    0.18359747852877
          100.25185935    0.47438948768198
          30.812727554    0.43735181104122
 s    3 1.00
          51.923789434  -0.092754154848099
          5.7045760975    0.56380825544207
          2.3508376809    0.50367044629712
 s    1 1.00
         0.44605124672                   1
 s    1 1.00
          0.1684885619                   1
 p    5 1.00
          307.66790569  -0.0088797025588865
          72.102015515  -0.064284071721237
          22.532680262   -0.24288739736006
          7.8991765444   -0.48340836369878
          2.8767268321   -0.38952563875509
 p    1 1.00
         0.77459363955                   1
 p    1 1.00
         0.21037699698                   1
 d    1 1.00
                  0.65                   1

9 0
 s    5 1.00
          10449.827566  0.0054265953789407
          1571.7365221   0.040626378128836
          357.12065523    0.18359747852877
          100.25185935    0.47438948768198
          30.812727554    0.43735181104122
 s    3 1.00
          51.923789434  -0.092754154848099
          5.7045760975    0.56380825544207
          2.3508376809    0.50367044629712
 s    1 1.00
         0.44605124672                   1
 s    1 1.00
          0.1684885619                   1
 p    5 1.00
          307.66790569  -0.0088797025588865
          72.102015515  -0.064284071721237
          22.532680262   -0.24288739736006
          7.8991765444   -0.48340836369878
          2.8767268321   -0.38952563875509
 p    1 1.00
         0.77459363955                   1
 p    1 1.00
         0.21037699698                   1
 d    1 1.00
                  0.65                   1

[5d]
[7f]
[9g]

[MO]
 Sym= A
 Ene=               0
 Spin= Alpha
 Occup=    1.00000
   1     0.017025033759539
   2    -0.051487007331855
   3      0.22560344065754
   4      0.12896112279124
   5    -0.030591760447354
   6     0.057754346068392
   7    0.00025998675451196
   8     0.015966306625131
   9     -0.18912083944791
  10    -0.00084990176069661
  11    -0.052566670129199
  12    0.0039232638944505
  13     0.004001318525599
  14    -0.011745129276222
  15       0.0057922305558
  16    0.00082106651925187
  17    -0.0096645546982826
  18    -0.0065070184702086
  19    0.00013611278372355
  20    0.0050348153654132
  21    0.00083198267688893
  22    -0.0051681454955039
  23    -0.0066488234683498
  24    0.00016240172463586
  25    0.0014490479318057
  26    0.0007616838581397
  27    -0.0010835452734227
  28    -0.0013882918931043
  29    0.00017607060273877
  30    -0.0018523350358621
  31    -0.0003871875257342
  32      0.58562021829208
  33      0.29229874879549
  34      0.24676688039716
  35    7.0888698822062e-17
  36    1.4616211825433e-17
  37    -0.016457441778779
  38    5.9204705494239e-17
  39    9.4812016339449e-18
  40    -0.0070415599615057
  41    -0.0045855040176481
  42    2.1132675337525e-18
  43    2.629314494739e-20
  44    0.0091027097989845
  45    4.5624155649361e-05
  46     0.017025033759539
  47    -0.051487007331855
  48      0.22560344065754
  49      0.12896112279124
  50    -0.030591760447354
  51    -0.057754346068392
  52    -0.00025998675451172
  53     0.015966306625131
  54      0.18912083944791
  55    0.00084990176069657
  56    -0.052566670129199
  57    -0.0039232638944506
  58    -0.0040013185255989
  59    -0.011745129276222
  60    0.0057922305558001
  61    -0.00082106651925181
  62    0.0096645546982825
  63    -0.0065070184702086
  64    0.00013611278372352
  65    0.0050348153654132
  66    -0.0008319826768889
  67    0.0051681454955039
  68    -0.0066488234683498
  69    0.00016240172463584
  70    0.0014490479318057
  71    -0.0007616838581397
  72    0.0010835452734227
  73    -0.0013882918931043
  74    0.00017607060273877
  75    0.0018523350358621
  76    0.0003871875257342
  77    0.0045285706456984
  78    -0.030052834359148
  79     0.049699238470008
  80      0.03375173757901
  81    -0.019294501975947
  82     0.014678099753105
  83    -0.028486095576014
  84    -0.033069215040774
  85     0.026977960041839
  86     -0.05244651334547
  87    -0.051817869495414
  88     0.038815222662925
  89    -0.073345343285483
  90    0.0049108686904321
  91    0.0021046111446156
  92    -0.0058428367359436
  93    -0.0016728391234597
  94    -0.0013287060639671
  95    0.0042127874070449
  96    -0.028156158549919
  97     0.050205505849638
  98      0.02117251194872
  99    -0.029182767057637
 100    0.0088798493272706
 101     0.012808525155196
 102    -0.052118765986275
 103     0.017729713234676
 104     0.025176445962796
 105    -0.074395809437786
 106     0.018758058652874
 107     0.030399883326123
 108    0.00094130557981303
 109    -0.0054548326978129
 110    0.0031666106381758
 111    0.0014208978301249
 112    -0.003427623321251
 113    0.0048905252428487
 114    -0.032406847523897
 115     0.054783786267155
 116     0.026157709000307
 117    -0.027923116092799
 118    -0.027676023567993
 119    0.0052570947494656
 120    -0.048813297130802
 121     -0.05166979235549
 122     0.009566600288209
 123    -0.072641140759431
 124    -0.066243702566173
 125     0.014768688047917
 126    -0.0028696349010256
 127    -0.0014989836985572
 128    -0.0029889508077854
 129    -0.0044074427947841
 130    0.0047035036670891
 131    0.0045285706456985
 132    -0.030052834359148
 133     0.049699238470008
 134      0.03375173757901
 135     0.019294501975947
 136    -0.014678099753105
 137    -0.028486095576014
 138     0.033069215040774
 139    -0.026977960041839
 140     -0.05244651334547
 141     0.051817869495414
 142    -0.038815222662925
 143    -0.073345343285482
 144    0.0049108686904321
 145    -0.0021046111446156
 146    0.0058428367359436
 147    -0.0016728391234597
 148    -0.0013287060639671
 149    0.0042127874070449
 150    -0.028156158549919
 151     0.050205505849638
 152      0.02117251194872
 153     0.029182767057637
 154    -0.0088798493272706
 155     0.012808525155196
 156     0.052118765986275
 157    -0.017729713234676
 158     0.025176445962796
 159     0.074395809437787
 160    -0.018758058652874
 161     0.030399883326124
 162    0.00094130557981303
 163    0.0054548326978129
 164    -0.0031666106381758
 165    0.0014208978301249
 166    -0.003427623321251
 167    0.0048905252428487
 168    -0.032406847523897
 169     0.054783786267155
 170     0.026157709000307
 171     0.027923116092799
 172     0.027676023567993
 173    0.0052570947494656
 174     0.048813297130802
 175      0.05166979235549
 176     0.009566600288209
 177     0.072641140759431
 178     0.066243702566173
 179     0.014768688047917
 180    -0.0028696349010256
 181    0.0014989836985572
 182    0.0029889508077854
 183    -0.0044074427947841
 184    0.0047035036670891
 Sym= A
 Ene=               1
 Spin= Alpha
 Occup=    1.00000
   1    -0.0023629287378331
   2    0.0066195135034077
   3    -0.033385694402522
   4    0.0094140773358675
   5    0.0024019662409422
   6    -0.0064453911806222
   7      0.01827762230966
   8     0.019503548776017
   9     0.020604739329925
  10    -0.056513346946599
  11    -0.060357762350852
  12    -0.028930616444719
  13      0.05060488005431
  14     0.054766633458748
  15    -0.020269503760322
  16     0.046641992888832
  17    -0.083516359869345
  18    -0.047626922920198
  19     0.051854774563809
  20    -0.012195908721008
  21      0.03175862989329
  22    -0.054722838521919
  23    -0.030534128929881
  24      0.03489414510838
  25    -0.00010234089356794
  26    -0.0009840952952419
  27    -0.00059517905067855
  28    0.00047350819421357
  29    -0.0022281161114384
  30    -0.00078938553021763
  31    0.0005147249626423
  32    -1.8330782035274e-16
  33    -2.320712842161e-16
  34    -1.8684364664736e-16
  35    0.0022223870559834
  36     0.012996114881203
  37    1.873355393011e-16
  38    -0.00044764445199131
  39    0.0040663711375926
  40    1.5699647340577e-16
  41    6.8634665004703e-18
  42    0.00069723686159942
  43    -0.00045459126533618
  44    -5.1212254939738e-18
  45    -6.1852656023925e-19
  46    0.0023629287378331
  47    -0.0066195135034077
  48     0.033385694402522
  49    -0.0094140773358674
  50    -0.0024019662409422
  51    -0.0064453911806223
  52      0.01827762230966
  53    -0.019503548776017
  54     0.020604739329925
  55    -0.056513346946599
  56     0.060357762350852
  57    -0.028930616444719
  58      0.05060488005431
  59    -0.054766633458748
  60     0.020269503760322
  61     0.046641992888832
  62    -0.083516359869345
  63     0.047626922920198
  64    -0.051854774563809
  65     0.012195908721008
  66     0.031758629893291
  67    -0.054722838521919
  68     0.030534128929881
  69     -0.03489414510838
  70    0.00010234089356794
  71    -0.00098409529524191
  72    -0.00059517905067855
  73    -0.00047350819421357
  74    0.0022281161114384
  75    -0.00078938553021763
  76    0.0005147249626423
  77    0.0035903503174522
  78    -0.022111092755562
  79     0.026840186932972
  80    0.0045931856203327
  81    -0.00032250442463213
  82    -0.0082828784447117
  83    -0.070347105060951
  84    -0.00041073384683132
  85    -0.014502122855709
  86     -0.11779642222574
  87    0.0018372311074092
  88    -0.031504435318974
  89     -0.17121728197035
  90    0.0066033364683639
  91    0.0011341700615394
  92    -0.0045865562388892
  93    -0.00057444718725607
  94    0.00020022186118076
  95    -0.0097404180689239
  96     0.061950409929163
  97    -0.089749960019894
  98    -0.025375163437717
  99     0.066547447720778
 100    -0.062135191077339
 101     -0.09262831714702
 102      0.11311804995533
 103     -0.10558249280388
 104     -0.15678472097789
 105       0.1574456772762
 106     -0.15227545472171
 107     -0.22444801724224
 108    -0.006565009763802
 109     0.012305927330815
 110    -0.0097376815119983
 111    -0.0037479282261727
 112    0.0066628099075593
 113    0.0059345828659319
 114    -0.036989057668689
 115     0.046587176488117
 116     0.016858992401779
 117    -0.026855188649306
 118    -0.091487926432176
 119    -0.0042794175014664
 120     -0.04517485785347
 121     -0.15230415301075
 122    -0.0077935829042843
 123    -0.061048171929552
 124     -0.22794412872208
 125    -0.018293724983579
 126    -0.0044194519407968
 127    -0.0012666144929263
 128    -0.0065887770762444
 129    -0.0069049364399625
 130    0.0066027970452436
 131    -0.0035903503174522
 132     0.022111092755562
 133    -0.026840186932972
 134    -0.0045931856203329
 135    -0.00032250442463214
 136    -0.0082828784447118
 137     0.070347105060951
 138    -0.00041073384683136
 139    -0.014502122855709
 140      0.11779642222574
 141    0.0018372311074091
 142    -0.031504435318974
 143      0.17121728197035
 144    -0.0066033364683639
 145    0.0011341700615394
 146    -0.0045865562388892
 147    0.00057444718725607
 148    -0.00020022186118076
 149    0.0097404180689239
 150    -0.061950409929163
 151     0.089749960019894
 152     0.025375163437717
 153     0.066547447720778
 154    -0.062135191077339
 155      0.09262831714702
 156      0.11311804995533
 157     -0.10558249280388
 158       0.1567847209779
 159       0.1574456772762
 160     -0.15227545472171
 161      0.22444801724224
 162     0.006565009763802
 163     0.012305927330815
 164    -0.0097376815119983
 165    0.0037479282261727
 166    -0.0066628099075593
 167    -0.005934582865932
 168     0.036989057668689
 169    -0.046587176488117
 170    -0.016858992401779
 171    -0.026855188649306
 172    -0.091487926432176
 173    0.0042794175014664
 174     -0.04517485785347
 175     -0.15230415301075
 176    0.0077935829042844
 177    -0.061048171929552
 178     -0.22794412872208
 179     0.018293724983579
 180    0.0044194519407968
 181    -0.0012666144929263
 182    -0.0065887770762444
 183    0.0069049364399625
 184    -0.0066027970452436
 Sym= A
 Ene=               2
 Spin= Alpha
 Occup=    1.00000
   1    -0.0022568228108108
   2    0.0062915774974084
   3    -0.032129729131259
   4    0.0056969518615869
   5    -0.0048547429433837
   6    -0.0062384436995735
   7      0.02009946919787
   8     0.018173315857532
   9     0.020483755975589
  10    -0.062018836545326
  11    -0.056205263315265
  12    -0.020758621321223
  13     0.056807181228723
  14     0.051529267318318
  15    -0.027287087260623
  16     0.043662616622469
  17    -0.080690986567593
  18    -0.045065397113486
  19     0.054400625236107
  20     -0.01665100455037
  21     0.029244946322961
  22    -0.052224687928241
  23    -0.030589278955445
  24     0.036454659320241
  25    -0.00023662524815642
  26    -0.00099122152812666
  27    -0.00047634360025846
  28    0.00061193017593161
  29    -0.0022479850744545
  30    -0.00084216059447197
  31    0.0004602795463018
  32    -0.025623988818302
  33    -0.0079607347314785
  34    -0.006047895914011
  35    -8.3895112692531e-18
  36    1.5232693596718e-17
  37      0.01750704580275
  38    -3.9211752412161e-18
  39    5.9687909926143e-18
  40    0.0099475314299789
  41    0.00032040061131567
  42    3.3587266297965e-19
  43    -1.5376098250441e-19
  44    -0.00062376098760682
  45    0.0011335466542614
  46    -0.0022568228108108
  47    0.0062915774974084
  48    -0.032129729131259
  49     0.005696951861587
  50    -0.0048547429433837
  51    0.0062384436995735
  52     -0.02009946919787
  53     0.018173315857532
  54    -0.020483755975589
  55     0.062018836545326
  56    -0.056205263315265
  57     0.020758621321223
  58    -0.056807181228723
  59     0.051529267318318
  60    -0.027287087260623
  61    -0.043662616622469
  62     0.080690986567593
  63    -0.045065397113486
  64     0.054400625236107
  65     -0.01665100455037
  66    -0.029244946322961
  67     0.052224687928241
  68    -0.030589278955445
  69     0.036454659320241
  70    -0.00023662524815642
  71    0.00099122152812666
  72    0.00047634360025846
  73    0.0006119301759316
  74    -0.0022479850744545
  75    0.00084216059447197
  76    -0.0004602795463018
  77    0.0030240244200689
  78     -0.01857825158247
  79     0.022013486377426
  80    0.0055061558349751
  81    0.0016482802733865
  82     -0.01431794717791
  83    -0.064650965445726
  84    0.0026800955495543
  85    -0.024502264109721
  86     -0.10802077810677
  87    0.0077113234817064
  88      -0.0465742305011
  89     -0.15939779199225
  90    0.0059661335738726
  91    0.0012650492754489
  92    -0.0036305348378413
  93    8.1218541798737e-05
  94    0.00021679382027762
  95    -0.0098363653804193
  96     0.062559292037242
  97    -0.090829062976153
  98    -0.024157073938425
  99     0.070530221100832
 100    -0.063818519203368
 101    -0.090017704995936
 102      0.11977635737072
 103     -0.10818876497581
 104      -0.1522559652098
 105      0.16753637514015
 106     -0.15791395340268
 107      -0.2181293079589
 108    -0.0063518287317012
 109     0.012667234000675
 110    -0.0097964329289888
 111    -0.003985294956325
 112    0.0070398202616811
 113    0.0060856816864032
 114    -0.037925605446922
 115     0.047625594590966
 116     0.017983772931552
 117    -0.021170499639691
 118    -0.094815841082212
 119    0.00011419045047101
 120    -0.035508228131515
 121     -0.15820664192978
 122    -0.00044592140347755
 123    -0.046491420654314
 124      -0.2344968408307
 125    -0.0070379007819995
 126    -0.0042981581156911
 127    -0.0012154813484159
 128    -0.0070647438430551
 129    -0.0071037297734421
 130    0.0062389579027143
 131    0.0030240244200689
 132     -0.01857825158247
 133     0.022013486377426
 134    0.0055061558349752
 135    -0.0016482802733865
 136      0.01431794717791
 137    -0.064650965445726
 138    -0.0026800955495544
 139      0.02450226410972
 140     -0.10802077810677
 141    -0.0077113234817065
 142     0.046574230501099
 143     -0.15939779199225
 144    0.0059661335738726
 145    -0.0012650492754489
 146    0.0036305348378414
 147    8.1218541798732e-05
 148    0.00021679382027763
 149    -0.0098363653804192
 150     0.062559292037241
 151    -0.090829062976153
 152    -0.024157073938425
 153    -0.070530221100832
 154     0.063818519203368
 155    -0.090017704995936
 156     -0.11977635737072
 157      0.10818876497581
 158      -0.1522559652098
 159     -0.16753637514014
 160      0.15791395340268
 161      -0.2181293079589
 162    -0.0063518287317012
 163    -0.012667234000675
 164    0.0097964329289888
 165    -0.003985294956325
 166     0.007039820261681
 167    0.0060856816864032
 168    -0.037925605446922
 169     0.047625594590966
 170     0.017983772931552
 171     0.021170499639691
 172     0.094815841082212
 173    0.00011419045047098
 174     0.035508228131515
 175      0.15820664192977
 176    -0.00044592140347761
 177     0.046491420654314
 178      0.23449684083069
 179    -0.0070379007819995
 180    -0.0042981581156911
 181    0.0012154813484159
 182    0.0070647438430551
 183    -0.0071037297734421
 184    0.0062389579027143
 Sym= A
 Ene=               3
 Spin= Alpha
 Occup=    1.00000
   1    -0.0031372966555871
   2    0.0090686077151231
   3    -0.042982627753573
   4    0.0092611846388959
   5    -0.011821335225356
   6    -0.0039721663291128
   7    -0.017458420748598
   8     0.016833747552597
   9     0.012713148229657
  10     0.054967352015266
  11    -0.053221991210722
  12    -0.023728370858219
  13    -0.055271474896225
  14     0.054008124067561
  15     0.074789991214907
  16     0.013349982753056
  17    -0.035817914313849
  18     0.024051078554421
  19    -0.018972804354689
  20      0.05360215137861
  21     0.011019528143751
  22    -0.026361114651286
  23     0.017962654488115
  24    -0.012377672477256
  25    0.00048209368311989
  26    0.0011038258946389
  27    -0.00085717642375895
  28    -0.00089791182542489
  29    -0.00057454660741163
  30    0.0011498275995388
  31    0.00068596448400903
  32    5.4823510361173e-17
  33    1.2411282517113e-17
  34    2.7708031948329e-17
  35    -0.0010366883539641
  36    -0.012524346731776
  37    2.1876282816565e-17
  38    -0.002105919718356
  39    -0.0020936844248531
  40    -1.6141957769682e-17
  41    3.9860303968834e-18
  42    0.00019429633687241
  43    -0.00071853610540081
  44    5.2688967493345e-19
  45    -2.0274619804593e-18
  46    0.0031372966555871
  47    -0.0090686077151231
  48     0.042982627753572
  49    -0.0092611846388959
  50     0.011821335225356
  51    -0.0039721663291126
  52    -0.017458420748598
  53    -0.016833747552597
  54     0.012713148229656
  55     0.054967352015266
  56     0.053221991210721
  57    -0.023728370858219
  58    -0.055271474896225
  59     -0.05400812406756
  60    -0.074789991214907
  61     0.013349982753055
  62    -0.035817914313848
  63    -0.024051078554421
  64     0.018972804354689
  65     -0.05360215137861
  66      0.01101952814375
  67    -0.026361114651286
  68    -0.017962654488115
  69     0.012377672477256
  70    -0.00048209368311988
  71    0.0011038258946389
  72    -0.00085717642375894
  73    0.00089791182542489
  74    0.00057454660741163
  75    0.0011498275995388
  76    0.00068596448400903
  77    0.0079314911418756
  78    -0.049159005081449
  79     0.059548277938798
  80      0.01916225113086
  81    -0.0017897070725903
  82     0.093982850052856
  83    -0.087632267879538
  84    -0.0033010306506414
  85       0.1568448214987
  86     -0.14638014917464
  87    0.00061640146021907
  88       0.2333305796805
  89     -0.20387941464102
  90    0.0074476892635709
  91    0.0011339105152076
  92    -0.015512348523497
  93    -0.0059513297896738
  94    -0.00042811821492199
  95     -0.00102725648247
  96    0.0070009815460985
  97    -0.015587695764624
  98    0.0025745221435325
  99    -0.0054314050824783
 100     0.043580878333669
 101    -0.047703704095745
 102    -0.0081539202060725
 103     0.071728867550922
 104    -0.081290269992935
 105    -0.015363465272881
 106      0.12201336010417
 107     -0.12366642442441
 108    -0.0034075903472034
 109     0.001673557304847
 110    -0.00020407914502549
 111    -0.00043267918334616
 112    -0.0017226090788213
 113    -0.0062546951474879
 114     0.039786954864342
 115    -0.057355157687093
 116    -0.015806680806258
 117     0.019884445033031
 118     0.071860252457073
 119    -0.072039401749935
 120     0.033612421957632
 121      0.12216834469114
 122     -0.12008772541523
 123     0.047904109325093
 124      0.17234291109737
 125     -0.18880710264766
 126     0.002044865401606
 127    0.0025929891091049
 128     0.010894320554099
 129     0.006950419784619
 130    -0.004916957117272
 131    -0.0079314911418755
 132     0.049159005081449
 133    -0.059548277938797
 134     -0.01916225113086
 135    -0.0017897070725903
 136     0.093982850052855
 137     0.087632267879537
 138    -0.0033010306506414
 139       0.1568448214987
 140      0.14638014917464
 141     0.000616401460219
 142       0.2333305796805
 143      0.20387941464102
 144    -0.0074476892635708
 145    0.0011339105152076
 146    -0.015512348523497
 147    0.0059513297896737
 148    0.00042811821492199
 149    0.0010272564824699
 150    -0.0070009815460984
 151     0.015587695764623
 152    -0.0025745221435325
 153    -0.0054314050824784
 154     0.043580878333668
 155     0.047703704095745
 156    -0.0081539202060728
 157     0.071728867550922
 158     0.081290269992934
 159    -0.015363465272882
 160      0.12201336010417
 161       0.1236664244244
 162    0.0034075903472034
 163     0.001673557304847
 164    -0.00020407914502547
 165    0.00043267918334615
 166    0.0017226090788213
 167    0.0062546951474879
 168    -0.039786954864342
 169     0.057355157687092
 170     0.015806680806258
 171     0.019884445033031
 172     0.071860252457072
 173     0.072039401749935
 174     0.033612421957632
 175      0.12216834469114
 176      0.12008772541523
 177     0.047904109325093
 178      0.17234291109737
 179      0.18880710264766
 180    -0.002044865401606
 181    0.0025929891091049
 182     0.010894320554099
 183    -0.0069504197846189
 184     0.004916957117272
 Sym= A
 Ene=               4
 Spin= Alpha
 Occup=    1.00000
   1    -0.0027492369042207
   2    0.0076684586962615
   3    -0.038984271667903
   4    0.0025465467727141