[Molden Format]
made by pyscf v[2.1.1]
[Atoms] (AU)
Fe   1   26     3.17068844873907     0.00098706064664     0.12237737881307
O   2   8     0.00000000000000     0.00000000000000    -0.89004350580623
Fe   3   26    -3.17068844873907    -0.00098706064664     0.12237737881307
Cl   4   17     3.53383895113107    -2.07485195383062     3.76228752659000
Cl   5   17     5.54152580550813    -1.85590924879884    -2.78672786652360
Cl   6   17     4.48169216485503     3.92976278472880    -0.95330240907949
Cl   7   17    -3.53383895113107     2.07485195383062     3.76228752659000
Cl   8   17    -5.54152580550813     1.85590924879884    -2.78672786652360
Cl   9   17    -4.48169216485503    -3.92976278472880    -0.95330240907949
[GTO]
1 0
 s    6 1.00
          60923.640643  0.0017552243692958
          9147.8893982   0.013449023284001
          2081.3505927   0.066678874640978
          587.55977067    0.23176348548844
           191.0904399    0.46945550248188
          65.732730112     0.3596824938678
 s    3 1.00
          127.25891928   -0.10723431835929
           14.83091301    0.62971616328466
          6.0653307408    0.44472317896179
 s    3 1.00
           10.44994371   -0.21694289195548
          1.7245228003    0.69457867408393
         0.71772177325    0.43298308896347
 s    1 1.00
        0.091449828308                   1
 s    1 1.00
        0.033706691021                   1
 p    5 1.00
          773.43750995  0.0091440529992506
          182.15149714   0.067887577136571
          57.547272758    0.26167978878504
          20.614988935    0.51088040113251
           7.634855789    0.33235475570224
 p    3 1.00
           3.871932799    0.33193859098144
          1.4924724132     0.5553666555499
         0.56061284958    0.23106034201617
 p    1 1.00
              0.134915                   1
 d    4 1.00
          38.968133419   0.033335938558743
          10.800067078    0.17766212505983
          3.6136457999      0.441281781625
          1.2129967888    0.57089200490673
 d    1 1.00
          0.3652439317                   1
 f    1 1.00
                 1.598                   1

2 0
 s    5 1.00
          2266.1767785  -0.0053893503921743
          340.87010191   -0.04023472138896
          77.363135167   -0.18008184205526
           21.47964494   -0.46828857657651
          6.6589433124   -0.44692617160187
 s    1 1.00
         0.80975975668                   1
 s    1 1.00
         0.25530772234                   1
 p    3 1.00
          17.721504317   0.062630248763161
           3.863550544    0.33331138482352
          1.0480920883    0.74148638308122
 p    1 1.00
         0.27641544411                   1
 d    1 1.00
                   1.2                   1

3 0
 s    6 1.00
          60923.640643  0.0017552243692958
          9147.8893982   0.013449023284001
          2081.3505927   0.066678874640978
          587.55977067    0.23176348548844
           191.0904399    0.46945550248188
          65.732730112     0.3596824938678
 s    3 1.00
          127.25891928   -0.10723431835929
           14.83091301    0.62971616328466
          6.0653307408    0.44472317896179
 s    3 1.00
           10.44994371   -0.21694289195548
          1.7245228003    0.69457867408393
         0.71772177325    0.43298308896347
 s    1 1.00
        0.091449828308                   1
 s    1 1.00
        0.033706691021                   1
 p    5 1.00
          773.43750995  0.0091440529992506
          182.15149714   0.067887577136571
          57.547272758    0.26167978878504
          20.614988935    0.51088040113251
           7.634855789    0.33235475570224
 p    3 1.00
           3.871932799    0.33193859098144
          1.4924724132     0.5553666555499
         0.56061284958    0.23106034201617
 p    1 1.00
              0.134915                   1
 d    4 1.00
          38.968133419   0.033335938558743
          10.800067078    0.17766212505983
          3.6136457999      0.441281781625
          1.2129967888    0.57089200490673
 d    1 1.00
          0.3652439317                   1
 f    1 1.00
                 1.598                   1

4 0
 s    5 1.00
          10449.827566  0.0054265953789407
          1571.7365221   0.040626378128836
          357.12065523    0.18359747852877
          100.25185935    0.47438948768198
          30.812727554    0.43735181104122
 s    3 1.00
          51.923789434  -0.092754154848099
          5.7045760975    0.56380825544207
          2.3508376809    0.50367044629712
 s    1 1.00
         0.44605124672                   1
 s    1 1.00
          0.1684885619                   1
 p    5 1.00
          307.66790569  -0.0088797025588865
          72.102015515  -0.064284071721237
          22.532680262   -0.24288739736006
          7.8991765444   -0.48340836369878
          2.8767268321   -0.38952563875509
 p    1 1.00
         0.77459363955                   1
 p    1 1.00
         0.21037699698                   1
 d    1 1.00
                  0.65                   1

5 0
 s    5 1.00
          10449.827566  0.0054265953789407
          1571.7365221   0.040626378128836
          357.12065523    0.18359747852877
          100.25185935    0.47438948768198
          30.812727554    0.43735181104122
 s    3 1.00
          51.923789434  -0.092754154848099
          5.7045760975    0.56380825544207
          2.3508376809    0.50367044629712
 s    1 1.00
         0.44605124672                   1
 s    1 1.00
          0.1684885619                   1
 p    5 1.00
          307.66790569  -0.0088797025588865
          72.102015515  -0.064284071721237
          22.532680262   -0.24288739736006
          7.8991765444   -0.48340836369878
          2.8767268321   -0.38952563875509
 p    1 1.00
         0.77459363955                   1
 p    1 1.00
         0.21037699698                   1
 d    1 1.00
                  0.65                   1

6 0
 s    5 1.00
          10449.827566  0.0054265953789407
          1571.7365221   0.040626378128836
          357.12065523    0.18359747852877
          100.25185935    0.47438948768198
          30.812727554    0.43735181104122
 s    3 1.00
          51.923789434  -0.092754154848099
          5.7045760975    0.56380825544207
          2.3508376809    0.50367044629712
 s    1 1.00
         0.44605124672                   1
 s    1 1.00
          0.1684885619                   1
 p    5 1.00
          307.66790569  -0.0088797025588865
          72.102015515  -0.064284071721237
          22.532680262   -0.24288739736006
          7.8991765444   -0.48340836369878
          2.8767268321   -0.38952563875509
 p    1 1.00
         0.77459363955                   1
 p    1 1.00
         0.21037699698                   1
 d    1 1.00
                  0.65                   1

7 0
 s    5 1.00
          10449.827566  0.0054265953789407
          1571.7365221   0.040626378128836
          357.12065523    0.18359747852877
          100.25185935    0.47438948768198
          30.812727554    0.43735181104122
 s    3 1.00
          51.923789434  -0.092754154848099
          5.7045760975    0.56380825544207
          2.3508376809    0.50367044629712
 s    1 1.00
         0.44605124672                   1
 s    1 1.00
          0.1684885619                   1
 p    5 1.00
          307.66790569  -0.0088797025588865
          72.102015515  -0.064284071721237
          22.532680262   -0.24288739736006
          7.8991765444   -0.48340836369878
          2.8767268321   -0.38952563875509
 p    1 1.00
         0.77459363955                   1
 p    1 1.00
         0.21037699698                   1
 d    1 1.00
                  0.65                   1

8 0
 s    5 1.00
          10449.827566  0.0054265953789407
          1571.7365221   0.040626378128836
          357.12065523    0.18359747852877
          100.25185935    0.47438948768198
          30.812727554    0.43735181104122
 s    3 1.00
          51.923789434  -0.092754154848099
          5.7045760975    0.56380825544207
          2.3508376809    0.50367044629712
 s    1 1.00
         0.44605124672                   1
 s    1 1.00
          0.1684885619                   1
 p    5 1.00
          307.66790569  -0.0088797025588865
          72.102015515  -0.064284071721237
          22.532680262   -0.24288739736006
          7.8991765444   -0.48340836369878
          2.8767268321   -0.38952563875509
 p    1 1.00
         0.77459363955                   1
 p    1 1.00
         0.21037699698                   1
 d    1 1.00
                  0.65                   1

9 0
 s    5 1.00
          10449.827566  0.0054265953789407
          1571.7365221   0.040626378128836
          357.12065523    0.18359747852877
          100.25185935    0.47438948768198
          30.812727554    0.43735181104122
 s    3 1.00
          51.923789434  -0.092754154848099
          5.7045760975    0.56380825544207
          2.3508376809    0.50367044629712
 s    1 1.00
         0.44605124672                   1
 s    1 1.00
          0.1684885619                   1
 p    5 1.00
          307.66790569  -0.0088797025588865
          72.102015515  -0.064284071721237
          22.532680262   -0.24288739736006
          7.8991765444   -0.48340836369878
          2.8767268321   -0.38952563875509
 p    1 1.00
         0.77459363955                   1
 p    1 1.00
         0.21037699698                   1
 d    1 1.00
                  0.65                   1

[5d]
[7f]
[9g]

[MO]
 Sym= A
 Ene=               0
 Spin= Alpha
 Occup=    1.00000
   1     0.014253810560214
   2    -0.032055324141696
   3      0.23365314475826
   4      0.24407705917953
   5    -0.077636651373619
   6    -0.044600224538193
   7    -0.0013876219901316
   8    -0.016168347646564
   9      0.14442908561903
  10    0.0042943643919176
  11     0.051837907188281
  12     0.071586435802589
  13    -0.00066567114589479
  14     0.030492237752828
  15    0.0063731708232496
  16    -0.019753958265686
  17    -0.014512557381659
  18    -0.010863665906139
  19    -0.0018437252648044
  20    0.0088904818432094
  21    -0.020890159652426
  22    -0.010884556422719
  23    -0.017640498662691
  24    -0.0011505442956459
  25    0.0014676821530041
  26    0.0011438199552453
  27    -0.0025331506800417
  28    -0.00057441421454984
  29    0.00047823842268389
  30    -0.0015514904940177
  31    -0.0008840411725254
  32     -0.38570539320555
  33    -0.055757592553065
  34    -0.046593132705741
  35     0.061881313065913
  36    -0.00083331732232588
  37     0.042217450611145
  38     0.066998231047242
  39    -0.0021021288627579
  40     0.038455268351221
  41    0.0011445662961749
  42    0.0027886025968765
  43    -8.1857639963999e-05
  44    -0.00023506544997861
  45    -1.5305346422269e-05
  46    -0.0088766221866648
  47     0.028499155254313
  48     -0.11105088824333
  49    -0.034556543356395
  50     0.025820596164828
  51     0.043999942172575
  52    0.00037131623440823
  53    -0.013073218899409
  54     -0.14409037852475
  55    -0.0011579870097136
  56     0.042898938363879
  57    0.0024549844835822
  58    0.0012138613640936
  59    0.0075909497244602
  60    -0.0015659119535792
  61     0.012878558074754
  62    -0.0017860836724747
  63    -0.0028255821220637
  64    -0.00060392530167455
  65    -0.0014024666146961
  66    0.0053260097050808
  67    -0.0012352981645868
  68    0.0012229510522135
  69    -0.00037432645160388
  70    -0.00060957293683448
  71    0.00010170892463819
  72    -0.00019471183561041
  73     0.000730115302461
  74    -1.0149556484245e-06
  75    -0.00066211827245714
  76    -0.00011271348211904
  77     0.013490077803833
  78    -0.093887047458336
  79      0.19593337492474
  80      0.10928375741972
  81    0.0065763219194514
  82     0.034002330706109
  83    -0.050048178426636
  84     0.008962141165355
  85     0.071393797903737
  86     -0.10932127549299
  87     0.011722431442017
  88     0.094415083579927
  89      -0.1408215928441
  90     0.010125577745725
  91    0.00065695538256152
  92    -0.012873225999576
  93    -0.004003324226821
  94    -0.00044779189807663
  95     0.013086163413335
  96    -0.091429240165975
  97      0.19327281449685
  98      0.11182516347379
  99    -0.022978988477458
 100     0.022736092478839
 101     0.045125969888495
 102     -0.05443013791331
 103     0.051521671458823
 104     0.095952818184367
 105    -0.074449467302805
 106     0.063633886625672
 107      0.12679884524834
 108    0.0055192709712453
 109    -0.011067106455041
 110    0.0093756139765476
 111    0.00062640583018878
 112    -0.0064632497821775
 113     0.012244731133908
 114    -0.085568080087155
 115      0.18036861853812
 116      0.10655409374637
 117    -0.0046595958813054
 118     -0.04987296148701
 119     0.024187260512807
 120    -0.015663054092349
 121     -0.10937745947587
 122     0.046978448497861
 123    -0.021947973088009
 124     -0.14297711631757
 125     0.068534573007856
 126    -0.0050881079759508
 127    -0.0020430108060635
 128    -0.0075776376101545
 129    -0.010673190112572
 130    0.0055188044277257
 131    0.00016577398203327
 132    -0.0015934503278533
 133    0.0057187485173615
 134    0.0052342512074011
 135    -0.004533437824622
 136    0.0021139737037288
 137     0.007201254006085
 138    -0.0073084299384723
 139    0.0028908857526614
 140     0.011039362361036
 141    -0.0083579281454405
 142    0.0038943684100146
 143     0.015511729625078
 144    -0.0011034575602655
 145    0.00031835506218061
 146    -0.0008457982321964
 147    0.00040237155734146
 148    0.00011990552504588
 149    -0.00068248627744061
 150    0.0038722868024491
 151    -0.00032740654535058
 152    -0.002916943988063
 153    -0.014029876325629
 154    0.0027738599405693
 155    -0.0020294437084985
 156    -0.022937944780591
 157    0.0042254338114032
 158    -0.0025933063827006
 159    -0.034252773174281
 160    0.0050981345288593
 161    -0.0028661962207543
 162    0.00045795452420721
 163    -0.0018536111574021
 164    0.00067861205427186
 165    -0.0010140982108042
 166    0.0014150809452859
 167    -0.0009590994512022
 168    0.0056960931279006
 169    -0.0040571494759933
 170    -0.0020655521188808
 171    -0.013193592131252
 172    -0.0097066617566436
 173    0.00087560217361741
 174    -0.022092088203295
 175    -0.015478076189933
 176    0.0018261083911777
 177    -0.031800291247454
 178    -0.021288142636081
 179    0.0029167165144618
 180     0.001103855587303
 181    -0.00038035124078981
 182    -0.00044780850590487
 183    0.0011390341008218
 184    -0.0020562233062655
 Sym= A
 Ene=               1
 Spin= Alpha
 Occup=    1.00000
   1    -0.001262474430121
   2    0.0037551393587959
   3    -0.016795124211716
   4     0.031469241005754
   5    -0.013929159754861
   6    -0.00067801989819069
   7    -0.0014776969243715
   8    0.0048082400533818
   9    0.0021473194318798
  10    0.0046677566308045
  11    -0.014936499479735
  12    -0.0023346540058952
  13    -0.0057445578952307
  14     0.021809710771236
  15     -0.20129517106628
  16      0.47894349029464
  17      0.48273038468861
  18     -0.43357080796746
  19     -0.28034089306623
  20    -0.054083637159206
  21      0.12836789478003
  22      0.13067659564543
  23     -0.11765350448457
  24    -0.075327869636269
  25    -0.0010658442475065
  26    0.0010670254540601
  27    0.00098054201325102
  28    0.00025921590584682
  29    0.00029218080058299
  30    -0.00088712756817862
  31    -0.00057294546749947
  32    -0.0018812243920073
  33    -0.0050967824899008
  34    -0.0025537362739869
  35    -0.0086483864574167
  36    -0.014399737334444
  37     0.049584912401266
  38    -0.0094574936068636
  39    -0.014021458953727
  40     0.048219577465645
  41    0.00020486316905483
  42    -0.0012000329439871
  43    0.00019746568071939
  44    0.00011826104500836
  45    0.00019572921819438
  46    -0.0005257471828527
  47    0.0015699611397421
  48    -0.0070002761516879
  49     0.007446913363784
  50    -0.0013408820059601
  51    0.0024284752523053
  52    -0.00052538474187696
  53    0.00083763859105761
  54    -0.0077508893046645
  55    0.0016720505223021
  56    -0.0026746112166343
  57    0.0067288818571393
  58    -0.0030768697790449
  59    0.0085391237510735
  60    -0.0012752476237263
  61    0.00071361451318042
  62    7.1256961770119e-06
  63    0.0019590585414242
  64    -0.00060759095846049
  65    -0.0014003379904665
  66    0.0023066272816267
  67    0.00015476322268104
  68    0.00081310669889486
  69    -0.00085977518250079
  70    -4.9495296781918e-05
  71    -0.00039237230054959
  72    -1.7782681149756e-05
  73    9.1369602086316e-05
  74    6.2287381418312e-05
  75    0.00028375448815304
  76    -0.00012035643886841
  77    0.0013678035584269
  78    -0.0089692200279334
  79     0.011347215919906
  80    0.0065346706052593
  81    -0.018071071002525
  82    0.0080035130446445
  83    -0.010004455761366
  84    -0.030642159346649
  85     0.013808768520046
  86    -0.017432577010417
  87    -0.050506291704111
  88      0.02213407091744
  89    -0.027766976736367
  90    0.0004851876550833
  91    -0.0019647057151708
  92    0.00045177383654881
  93    -0.00086838258957952
  94    0.0012409574592877
  95    -8.1874417974145e-05
  96    0.00055759288552329
  97    -0.0022451853854146
  98    0.0045303465858826
  99     0.011791107071834
 100     0.025701019821938
 101    -0.0080044099904516
 102     0.019903133944131
 103     0.043317402259188
 104    -0.013350245683168
 105     0.031869058145144
 106     0.073903377752334
 107    -0.022203306601181
 108    0.00070917396953747
 109    -0.0013556838870243
 110    -0.0016571099531055
 111    0.0020452239765589
 112    0.0012718934556315
 113    -0.0002008575332114
 114    0.0013304927193206
 115    -0.0030810232176836
 116     0.002641731887397
 117     0.013244289074937
 118    -0.0077782359107754
 119    -0.021922872778988
 120     0.022201994792721
 121    -0.013102657677151
 122    -0.036790145237006
 123     0.037137998769806
 124    -0.023095633897212
 125    -0.062105478462286
 126    0.00098988202211889
 127    -0.0012773991190256
 128    -0.0015530998885767
 129    0.0016691708624317
 130    0.00079496551670462
 131    -0.00022416267764532
 132     0.001513570691702
 133    -0.0028146549671738
 134    -0.0014910300546602
 135    -0.0015525845512052
 136    0.00083853258399239
 137    0.00078408711078731
 138    -0.0028636664714507
 139    0.0014347027400516
 140    0.0013731405350205
 141    -0.0037564121711792
 142    0.0032801898889928
 143    0.0030828535322073
 144    -0.00010629936762627
 145    -0.00031181266244731
 146    5.1473369940547e-05
 147    0.00017675522226466
 148    -0.00024837522436151
 149    7.7414905229327e-05
 150    -0.00050917068203312
 151    0.00037031699472182
 152    0.0032623783308366
 153     0.001052216837406
 154    7.6967851530814e-05
 155    -0.00069412193201415
 156    0.0018311212911115
 157    0.00018378405390756
 158    -0.0012500879606899
 159    0.0035837885988237
 160    -0.00080130671440333
 161    -0.00049861149640425
 162    4.5390890782375e-05
 163    0.00014082319635286
 164    -5.5476550257744e-05
 165    -9.5034400006628e-05
 166    -3.0585928588215e-05
 167    -0.00010070385587283
 168    0.00068137262240613
 169    -0.0014329182470772
 170    0.00028895002827166
 171    -0.00075406139496722
 172    -0.00040693526168141
 173    -0.0007892653883258
 174    -0.0013704755683698
 175    -0.00074411085745982
 176    -0.0013015297540425
 177    -0.001986432534186
 178    -0.00093053526506606
 179    -0.0026917331389219
 180    -0.0001061455963228
 181    0.00013540675860185
 182    1.287004113714e-05
 183    0.00010585473386323
 184    0.00017965845961204
 Sym= A
 Ene=               2
 Spin= Alpha
 Occup=    1.00000
   1    0.00083342290456509
   2    -0.0024797521680636
   3     0.011079234985392
   4    -0.021070785978374
   5    0.0075544874454176
   6    4.4083534920492e-05
   7    -0.0065214085801435
   8    -0.0033023055725005
   9    -0.0001151225057832
  10     0.020054897095393
  11     0.010088176955886
  12    -0.00092727162542225
  13     -0.02826143274526
  14    -0.015721005170283
  15     -0.52478932055694
  16       -0.154776366843
  17     -0.46394355936463
  18     -0.13091969094719
  19     -0.48633748051781
  20     -0.14098167839227
  21    -0.040740914575233
  22     -0.12459804480255
  23    -0.034781653379766
  24     -0.12900282189582
  25    -0.00059363468181143
  26    -0.0013496030883437
  27    -0.00055241028456418
  28    -0.00067544106556399
  29    -0.0017073268108683
  30    -7.8919435583504e-05
  31    -0.0015208093559274
  32     0.002247531302619
  33    0.0058798220546725
  34    0.0028871779012547
  35     0.009213490647433
  36    -0.076074828114265
  37    -0.042438557353643
  38       0.0102323969082
  39     -0.07325189229363
  40    -0.041430301992371
  41    -0.00063102110873958
  42    0.0012348060622067
  43     -0.00113898300844
  44    -0.00049702379072417
  45    0.0016929106717178
  46    0.00051488386678955
  47    -0.0015250851956289
  48    0.0069092981550277
  49    -0.0083677278956758
  50    0.0020154024739546
  51    -0.0021767133921711
  52    -0.0022255628418242
  53    -0.00050574154036338
  54    0.0069497095630959
  55    0.0070862501130527
  56    0.0016208243378237
  57    -0.0055215115667619
  58    -0.014249605127664
  59    -0.0069230989311853
  60    0.0013746745541521
  61    -0.00013052209251927
  62    0.00042130816661656
  63    -0.0014505974652531
  64    -0.002172037845582
  65    0.0012381715548111
  66    -0.001975992129249
  67     0.001219663772685
  68    -0.00051704361605755
  69    -0.004989854526497
  70    2.0144247768207e-05
  71    0.00033436569514322
  72    0.00014483022917011
  73    -0.00011147968088257
  74    0.00034979232149776
  75    -0.00027010086598314
  76    -0.00066390636762674
  77    -7.9002532375179e-05
  78    0.00051251482280682
  79    -0.00010578277571178
  80    -0.0010166242598296
  81    -0.0031730810759639
  82     0.022896936393145
  83      0.01394442130799
  84    -0.0053317672523068
  85      0.03861560558557
  86     0.023631832696924
  87    -0.0090283694295444
  88     0.065522892525758
  89     0.039931908714153
  90    0.0025944406609896
  91    -0.00043611591162155
  92    0.0013270707432299
  93    0.0014283596301201
  94    0.00011700361195842
  95    0.00042605623353032
  96    -0.0028453424548621
  97     0.005332705058649
  98    -0.0036238570593325
  99    -0.016228692977718
 100    0.0098706677742982
 101    -0.013859322542902
 102    -0.027545719365007
 103     0.016574548037579
 104    -0.023278593684454
 105    -0.043782677854769
 106      0.02827122144813
 107    -0.040372769031665
 108    0.0023956318784884
 109    2.5150475478264e-05
 110    -9.5047285380577e-06
 111    -0.00086353106680177
 112    0.0012544579698351
 113    -0.001087589283495
 114    0.0071239806215382
 115    -0.0093740329455079
 116    -0.0032731515288304
 117     0.015793550308336
 118    0.0090163879674752
 119    0.0078060697880446
 120     0.026650421605815
 121     0.015469876640063
 122     0.013070845012334
 123     0.044003681935893
 124     0.024868261225273
 125     0.022775825824926
 126    -0.00094656039863155
 127    -0.00021193455898446
 128    0.0011504978487325
 129    0.00078569434401951
 130    0.0011652291483159
 131    0.00029241024822812
 132    -0.0019351035461749
 133    0.0025939930889059
 134    0.0053213216343666
 135    0.0024305960511332
 136    3.7291192547457e-05
 137    -0.0019501618089943
 138    0.0042739426971385
 139    0.00011350757764757
 140    -0.0033027775045567
 141    0.0065491834916964
 142    -0.0011618850822309
 143    -0.0080870273776031
 144    3.6912561723895e-05
 145    0.00054286618864341
 146    6.1547700547891e-05
 147    -0.00029642306679823
 148    9.0980720904171e-05
 149    9.8895509075063e-05
 150    -0.00066368637964101
 151    0.0012810804692752
 152    9.7312568302815e-05
 153    0.00089671669533224
 154    0.00045666199862857
 155    0.00078704217930809
 156    0.0016063835670807
 157    0.00064709637628313
 158    0.0012643295539722
 159    0.0024753977314485
 160    0.0023337956455059
 161    0.0028358573179751
 162    0.00017694922681863
 163    -0.00012587917807759
 164     2.14425407712e-05
 165    -0.00012321720365645
 166    -2.4108999593403e-05
 167    -0.00027012554007578
 168    0.0017976788199938
 169    -0.0026167625596177
 170    -0.0045238249331804
 171    -0.003006117315425
 172    -0.00081786899302313
 173    0.00082798201335799
 174    -0.0054029751402696
 175    -0.001360646655287
 176    0.0014994880832197
 177    -0.0077189260507316
 178    -0.0046329498627615
 179    0.0013589826219992
 180    -0.00012663964075382
 181    -0.00021916989331072
 182    -0.00019121917952937
 183    0.00053504387156512
 184    0.0002107264796286
 Sym= A
 Ene=               3
 Spin= Alpha
 Occup=    1.00000
   1    0.00060853358391022
   2    -0.0018142423864941
   3    0.0080868826507226
   4    -0.010043919555919
   5    -0.0019742416688808
   6    0.0023363887630148
   7    0.0044964614847096
   8    -0.0042158089320875
   9    -0.007243826426541
  10    -0.014206161262562
  11     0.013410042414201
  12    0.0063492231499655
  13    0.0073195300721594
  14    -0.0058593368129711
  15      0.55573373156526
  16      0.37269620980421
  17     -0.30124322203516
  18      0.11361236064072
  19     -0.46174646384773
  20      0.14551693864784
  21     0.096016565855481
  22    -0.078683804453458
  23     0.031178644811391
  24     -0.11884562694976
  25    0.00018544042874885
  26    0.0018424290097895
  27    5.7470488290199e-05
  28    0.0015978291813466
  29    -0.0013404472543304
  30    -0.00022278918267645
  31    -0.0018834257841882
  32    -0.0049522555905742
  33    -0.012110735836757
  34    -0.0094532742020299
  35    -0.024701384690713
  36    -0.080574295798649
  37     0.072928725850698
  38     -0.02770864806513
  39    -0.078729708553073
  40      0.07091784438665
  41    0.00072504458911372
  42    -0.0020999571291868
  43    -0.0011412673295671
  44     0.001112800053235
  45      0.00183687629451
  46    -0.00099724033825042
  47    0.0029515374082002
  48    -0.013400585597061
  49     0.014466105710842
  50    -0.0046655903894537
  51    0.0043688509607988
  52    -0.0025493865368796
  53    0.0010423946006421
  54    -0.014013367405042
  55    0.0081151053650667
  56    -0.0033440834419934
  57     0.013263301057895
  58     -0.01555106588614
  59     0.013740099813669
  60    -0.0018787849519404
  61    7.8200152673494e-05
  62    0.00050362599138836
  63    0.0034024829482212
  64    -0.0022532445933311
  65    -0.0021828916380571
  66    0.0033959813417401
  67    0.0016094055784984
  68    0.0020288138457039
  69    -0.0052258597161358
  70    -1.681331493148e-05
  71    -0.00060519430597032
  72    6.3329954541621e-05
  73    1.2598630868662e-05
  74    0.00037244518642945
  75    0.00049413655516999
  76    -0.00070224170066942
  77    -0.003684255979098
  78     0.024146621756344
  79    -0.030150272624185
  80    -0.030433161737692
  81    -0.010490711919206
  82     -0.02780284010372
  83     0.029951513713139
  84    -0.017497772633749
  85    -0.047315335886974
  86     0.051387892732127
  87    -0.029785447533977
  88    -0.083035102576422
  89     0.091863781408066
  90    -0.001194704733599
  91    -0.0017922832850757
  92    4.8774475421749e-05
  93    1.041891776909e-05
  94    0.00041264209441102
  95    0.00049070854167607
  96    -0.0031845107765945
  97    0.0034601315522176
  98    0.0058604233519291
  99    -0.00068600737662854
 100      -0.0051535525232
 101     0.011277395272627
 102    -0.0012071274793059
 103    -0.0089057773395859
 104     0.019222276808975
 105    -0.0027498137925454
 106    -0.013263497745428
 107     0.032102202746124
 108    -0.00081715248762099
 109    0.00044144450007952
 110    0.00034345162139554
 111    -0.00038528308250458
 112    -0.0015494618898931
 113    0.0028928494300757
 114    -0.018835372162982
 115     0.022654912679807
 116     0.025959841714074
 117    0.00049587613978136
 118    -0.029140864562439
 119     0.021810550069311
 120    0.00057243606657827
 121    -0.049168087172412
 122     0.036474007186005
 123    2.947046907593e-05
 124    -0.088167415333478
 125     0.063881074225765
 126    -0.00070082708068573
 127    0.00026002598147657
 128    0.00014760545359296
 129    -0.0011235027322927
 130    0.0018947674249337
 131    -0.00017049919607443
 132    0.0011401136925147
 133    -0.0017250451043494
 134    -0.002424857302008
 135    -0.00042042230321011
 136    0.0015521388337018
 137    0.00049730744062687
 138    -0.00072036308549491
 139    0.0024571555497784
 140    0.00090432183091586
 141    -0.0020352120628963
 142    0.0065318272294746
 143    0.0020248183160913
 144    -4.3134592700161e-05
 145    -0.00031011178173023
 146    0.00012781014117376
 147    5.3133615158941e-05
 148    -0.00031408146525272
 149    0.00018101868868916
 150    -0.0011886126104157
 151    0.00091503143900579
 152    0.0072151148312192
 153    0.0025471171367156
 154    0.00054190482385659
 155    -0.00090445372231258
 156    0.0044513097677084
 157    0.00099375745445346
 158    -0.0017626264133598
 159    0.0083261905239547
 160    -0.00016375101728701
 161    0.0010737438329072
 162    0.00015525851910649
 163    0.00028851713292104
 164    -0.00013359621999429
 165    -0.00018912012939659
 166    -0.00016096990902083
 167    -0.00040050709717531
 168    0.0026828483225583
 169    -0.0046674357854891
 170    -0.0029472414169037
 171    -0.003314651006028
 172    -0.0015382442926136
 173    -0.00099051976703267
 174    -0.0058706756883233
 175    -0.0027425884692054
 176    -0.0014937002482369
 177    -0.0094797434439851
 178    -0.0053205185133931
 179    -0.0046150138687638
 180    -0.0003849498399579
 181    0.00010768424795511
 182    -0.00010945553932272
 183    0.00050855186136752