[Molden Format]
made by pyscf v[2.1.1]
[Atoms] (AU)
Fe   1   26     3.17068844873907     0.00098706064664     0.12237737881307
O   2   8     0.00000000000000     0.00000000000000    -0.89004350580623
Fe   3   26    -3.17068844873907    -0.00098706064664     0.12237737881307
Cl   4   17     3.53383895113107    -2.07485195383062     3.76228752659000
Cl   5   17     5.54152580550813    -1.85590924879884    -2.78672786652360
Cl   6   17     4.48169216485503     3.92976278472880    -0.95330240907949
Cl   7   17    -3.53383895113107     2.07485195383062     3.76228752659000
Cl   8   17    -5.54152580550813     1.85590924879884    -2.78672786652360
Cl   9   17    -4.48169216485503    -3.92976278472880    -0.95330240907949
[GTO]
1 0
 s    6 1.00
          60923.640643  0.0017552243692958
          9147.8893982   0.013449023284001
          2081.3505927   0.066678874640978
          587.55977067    0.23176348548844
           191.0904399    0.46945550248188
          65.732730112     0.3596824938678
 s    3 1.00
          127.25891928   -0.10723431835929
           14.83091301    0.62971616328466
          6.0653307408    0.44472317896179
 s    3 1.00
           10.44994371   -0.21694289195548
          1.7245228003    0.69457867408393
         0.71772177325    0.43298308896347
 s    1 1.00
        0.091449828308                   1
 s    1 1.00
        0.033706691021                   1
 p    5 1.00
          773.43750995  0.0091440529992506
          182.15149714   0.067887577136571
          57.547272758    0.26167978878504
          20.614988935    0.51088040113251
           7.634855789    0.33235475570224
 p    3 1.00
           3.871932799    0.33193859098144
          1.4924724132     0.5553666555499
         0.56061284958    0.23106034201617
 p    1 1.00
              0.134915                   1
 d    4 1.00
          38.968133419   0.033335938558743
          10.800067078    0.17766212505983
          3.6136457999      0.441281781625
          1.2129967888    0.57089200490673
 d    1 1.00
          0.3652439317                   1
 f    1 1.00
                 1.598                   1

2 0
 s    5 1.00
          2266.1767785  -0.0053893503921743
          340.87010191   -0.04023472138896
          77.363135167   -0.18008184205526
           21.47964494   -0.46828857657651
          6.6589433124   -0.44692617160187
 s    1 1.00
         0.80975975668                   1
 s    1 1.00
         0.25530772234                   1
 p    3 1.00
          17.721504317   0.062630248763161
           3.863550544    0.33331138482352
          1.0480920883    0.74148638308122
 p    1 1.00
         0.27641544411                   1
 d    1 1.00
                   1.2                   1

3 0
 s    6 1.00
          60923.640643  0.0017552243692958
          9147.8893982   0.013449023284001
          2081.3505927   0.066678874640978
          587.55977067    0.23176348548844
           191.0904399    0.46945550248188
          65.732730112     0.3596824938678
 s    3 1.00
          127.25891928   -0.10723431835929
           14.83091301    0.62971616328466
          6.0653307408    0.44472317896179
 s    3 1.00
           10.44994371   -0.21694289195548
          1.7245228003    0.69457867408393
         0.71772177325    0.43298308896347
 s    1 1.00
        0.091449828308                   1
 s    1 1.00
        0.033706691021                   1
 p    5 1.00
          773.43750995  0.0091440529992506
          182.15149714   0.067887577136571
          57.547272758    0.26167978878504
          20.614988935    0.51088040113251
           7.634855789    0.33235475570224
 p    3 1.00
           3.871932799    0.33193859098144
          1.4924724132     0.5553666555499
         0.56061284958    0.23106034201617
 p    1 1.00
              0.134915                   1
 d    4 1.00
          38.968133419   0.033335938558743
          10.800067078    0.17766212505983
          3.6136457999      0.441281781625
          1.2129967888    0.57089200490673
 d    1 1.00
          0.3652439317                   1
 f    1 1.00
                 1.598                   1

4 0
 s    5 1.00
          10449.827566  0.0054265953789407
          1571.7365221   0.040626378128836
          357.12065523    0.18359747852877
          100.25185935    0.47438948768198
          30.812727554    0.43735181104122
 s    3 1.00
          51.923789434  -0.092754154848099
          5.7045760975    0.56380825544207
          2.3508376809    0.50367044629712
 s    1 1.00
         0.44605124672                   1
 s    1 1.00
          0.1684885619                   1
 p    5 1.00
          307.66790569  -0.0088797025588865
          72.102015515  -0.064284071721237
          22.532680262   -0.24288739736006
          7.8991765444   -0.48340836369878
          2.8767268321   -0.38952563875509
 p    1 1.00
         0.77459363955                   1
 p    1 1.00
         0.21037699698                   1
 d    1 1.00
                  0.65                   1

5 0
 s    5 1.00
          10449.827566  0.0054265953789407
          1571.7365221   0.040626378128836
          357.12065523    0.18359747852877
          100.25185935    0.47438948768198
          30.812727554    0.43735181104122
 s    3 1.00
          51.923789434  -0.092754154848099
          5.7045760975    0.56380825544207
          2.3508376809    0.50367044629712
 s    1 1.00
         0.44605124672                   1
 s    1 1.00
          0.1684885619                   1
 p    5 1.00
          307.66790569  -0.0088797025588865
          72.102015515  -0.064284071721237
          22.532680262   -0.24288739736006
          7.8991765444   -0.48340836369878
          2.8767268321   -0.38952563875509
 p    1 1.00
         0.77459363955                   1
 p    1 1.00
         0.21037699698                   1
 d    1 1.00
                  0.65                   1

6 0
 s    5 1.00
          10449.827566  0.0054265953789407
          1571.7365221   0.040626378128836
          357.12065523    0.18359747852877
          100.25185935    0.47438948768198
          30.812727554    0.43735181104122
 s    3 1.00
          51.923789434  -0.092754154848099
          5.7045760975    0.56380825544207
          2.3508376809    0.50367044629712
 s    1 1.00
         0.44605124672                   1
 s    1 1.00
          0.1684885619                   1
 p    5 1.00
          307.66790569  -0.0088797025588865
          72.102015515  -0.064284071721237
          22.532680262   -0.24288739736006
          7.8991765444   -0.48340836369878
          2.8767268321   -0.38952563875509
 p    1 1.00
         0.77459363955                   1
 p    1 1.00
         0.21037699698                   1
 d    1 1.00
                  0.65                   1

7 0
 s    5 1.00
          10449.827566  0.0054265953789407
          1571.7365221   0.040626378128836
          357.12065523    0.18359747852877
          100.25185935    0.47438948768198
          30.812727554    0.43735181104122
 s    3 1.00
          51.923789434  -0.092754154848099
          5.7045760975    0.56380825544207
          2.3508376809    0.50367044629712
 s    1 1.00
         0.44605124672                   1
 s    1 1.00
          0.1684885619                   1
 p    5 1.00
          307.66790569  -0.0088797025588865
          72.102015515  -0.064284071721237
          22.532680262   -0.24288739736006
          7.8991765444   -0.48340836369878
          2.8767268321   -0.38952563875509
 p    1 1.00
         0.77459363955                   1
 p    1 1.00
         0.21037699698                   1
 d    1 1.00
                  0.65                   1

8 0
 s    5 1.00
          10449.827566  0.0054265953789407
          1571.7365221   0.040626378128836
          357.12065523    0.18359747852877
          100.25185935    0.47438948768198
          30.812727554    0.43735181104122
 s    3 1.00
          51.923789434  -0.092754154848099
          5.7045760975    0.56380825544207
          2.3508376809    0.50367044629712
 s    1 1.00
         0.44605124672                   1
 s    1 1.00
          0.1684885619                   1
 p    5 1.00
          307.66790569  -0.0088797025588865
          72.102015515  -0.064284071721237
          22.532680262   -0.24288739736006
          7.8991765444   -0.48340836369878
          2.8767268321   -0.38952563875509
 p    1 1.00
         0.77459363955                   1
 p    1 1.00
         0.21037699698                   1
 d    1 1.00
                  0.65                   1

9 0
 s    5 1.00
          10449.827566  0.0054265953789407
          1571.7365221   0.040626378128836
          357.12065523    0.18359747852877
          100.25185935    0.47438948768198
          30.812727554    0.43735181104122
 s    3 1.00
          51.923789434  -0.092754154848099
          5.7045760975    0.56380825544207
          2.3508376809    0.50367044629712
 s    1 1.00
         0.44605124672                   1
 s    1 1.00
          0.1684885619                   1
 p    5 1.00
          307.66790569  -0.0088797025588865
          72.102015515  -0.064284071721237
          22.532680262   -0.24288739736006
          7.8991765444   -0.48340836369878
          2.8767268321   -0.38952563875509
 p    1 1.00
         0.77459363955                   1
 p    1 1.00
         0.21037699698                   1
 d    1 1.00
                  0.65                   1

[5d]
[7f]
[9g]

[MO]
 Sym= A
 Ene=               0
 Spin= Alpha
 Occup=    1.00000
   1    -0.0088766221866649
   2     0.028499155254313
   3     -0.11105088824333
   4    -0.034556543356395
   5     0.025820596164828
   6    -0.043999942172575
   7    -0.00037131623440823
   8    -0.013073218899409
   9      0.14409037852475
  10    0.0011579870097137
  11     0.042898938363879
  12    -0.0024549844835821
  13    -0.0012138613640936
  14    0.0075909497244602
  15    -0.0015659119535791
  16    -0.012878558074754
  17    0.0017860836724746
  18    -0.0028255821220637
  19    -0.00060392530167446
  20    -0.001402466614696
  21    -0.0053260097050809
  22    0.0012352981645867
  23    0.0012229510522135
  24    -0.00037432645160386
  25    -0.00060957293683448
  26    -0.00010170892463819
  27    0.00019471183561041
  28     0.000730115302461
  29    -1.0149556484244e-06
  30    0.00066211827245715
  31    0.00011271348211904
  32     -0.38570539320555
  33    -0.055757592553065
  34    -0.046593132705741
  35    -0.061881313065914
  36    0.00083331732232592
  37     0.042217450611145
  38    -0.066998231047242
  39     0.002102128862758
  40     0.038455268351221
  41    0.0011445662961749
  42    -0.0027886025968765
  43      8.1857639964e-05
  44    -0.00023506544997862
  45    -1.5305346422269e-05
  46     0.014253810560214
  47    -0.032055324141696
  48      0.23365314475826
  49      0.24407705917953
  50    -0.077636651373619
  51     0.044600224538193
  52    0.0013876219901316
  53    -0.016168347646564
  54     -0.14442908561903
  55    -0.0042943643919176
  56     0.051837907188282
  57    -0.071586435802589
  58    0.00066567114589481
  59     0.030492237752828
  60    0.0063731708232496
  61     0.019753958265686
  62     0.014512557381659
  63    -0.010863665906139
  64    -0.0018437252648043
  65    0.0088904818432094
  66     0.020890159652426
  67     0.010884556422719
  68    -0.017640498662691
  69    -0.0011505442956459
  70    0.0014676821530041
  71    -0.0011438199552453
  72    0.0025331506800417
  73    -0.00057441421454984
  74    0.00047823842268389
  75    0.0015514904940177
  76    0.0008840411725254
  77    0.0001657739820333
  78    -0.0015934503278534
  79    0.0057187485173618
  80    0.0052342512074013
  81     0.004533437824622
  82    -0.0021139737037288
  83     0.007201254006085
  84    0.0073084299384723
  85    -0.0028908857526614
  86     0.011039362361036
  87    0.0083579281454405
  88    -0.0038943684100146
  89     0.015511729625078
  90    -0.0011034575602655
  91    -0.00031835506218061
  92    0.00084579823219639
  93    0.00040237155734146
  94    0.00011990552504588
  95    -0.00068248627744062
  96     0.003872286802449
  97    -0.00032740654535059
  98    -0.002916943988063
  99     0.014029876325629
 100    -0.0027738599405693
 101    -0.0020294437084985
 102     0.022937944780591
 103    -0.0042254338114032
 104    -0.0025933063827005
 105     0.034252773174281
 106    -0.0050981345288593
 107    -0.0028661962207543
 108    0.00045795452420721
 109    0.0018536111574021
 110    -0.00067861205427187
 111    -0.0010140982108042
 112    0.0014150809452859
 113    -0.00095909945120223
 114    0.0056960931279006
 115    -0.0040571494759933
 116    -0.0020655521188808
 117     0.013193592131252
 118    0.0097066617566437
 119    0.0008756021736174
 120     0.022092088203295
 121     0.015478076189933
 122    0.0018261083911777
 123     0.031800291247454
 124     0.021288142636081
 125    0.0029167165144618
 126     0.001103855587303
 127    0.00038035124078981
 128    0.00044780850590487
 129    0.0011390341008218
 130    -0.0020562233062655
 131     0.013490077803834
 132    -0.093887047458337
 133      0.19593337492474
 134      0.10928375741972
 135    -0.0065763219194514
 136    -0.034002330706109
 137    -0.050048178426636
 138    -0.008962141165355
 139    -0.071393797903737
 140     -0.10932127549299
 141    -0.011722431442017
 142    -0.094415083579927
 143      -0.1408215928441
 144     0.010125577745725
 145    -0.00065695538256152
 146     0.012873225999576
 147    -0.004003324226821
 148    -0.00044779189807663
 149     0.013086163413335
 150    -0.091429240165975
 151      0.19327281449685
 152      0.11182516347379
 153     0.022978988477458
 154    -0.022736092478839
 155     0.045125969888495
 156      0.05443013791331
 157    -0.051521671458823
 158     0.095952818184367
 159     0.074449467302805
 160    -0.063633886625672
 161      0.12679884524834
 162    0.0055192709712453
 163     0.011067106455041
 164    -0.0093756139765476
 165    0.00062640583018878
 166    -0.0064632497821775
 167     0.012244731133908
 168    -0.085568080087155
 169      0.18036861853812
 170      0.10655409374637
 171    0.0046595958813054
 172      0.04987296148701
 173     0.024187260512807
 174     0.015663054092349
 175      0.10937745947587
 176     0.046978448497861
 177     0.021947973088009
 178      0.14297711631757
 179     0.068534573007856
 180    -0.0050881079759508
 181    0.0020430108060635
 182    0.0075776376101546
 183    -0.010673190112572
 184    0.0055188044277258
 Sym= A
 Ene=               1
 Spin= Alpha
 Occup=    1.00000
   1    -0.00052574718285263
   2    0.0015699611397418
   3    -0.0070002761516869
   4    0.0074469133637829
   5    -0.0013408820059599
   6    -0.002428475252305
   7    0.00052538474187729
   8    0.00083763859105756
   9    0.0077508893046636
  10    -0.0016720505223031
  11    -0.0026746112166341
  12    -0.0067288818571385
  13    0.0030768697790469
  14    0.0085391237510727
  15    -0.0012752476237266
  16    -0.00071361451318033
  17    -7.1256961769119e-06
  18    0.0019590585414245
  19    -0.0006075909584604
  20    -0.0014003379904664
  21    -0.0023066272816264
  22    -0.00015476322268115
  23    0.00081310669889488
  24    -0.00085977518250139
  25    -4.9495296781918e-05
  26    0.00039237230054955
  27    1.7782681149734e-05
  28    9.1369602086304e-05
  29    6.2287381418363e-05
  30    -0.000283754488153
  31    0.0001203564388685
  32    -0.001881224392007
  33    -0.0050967824899002
  34    -0.0025537362739862
  35    0.0086483864574153
  36     0.014399737334455
  37      0.04958491240126
  38     0.009457493606862
  39     0.014021458953738
  40      0.04821957746564
  41    0.00020486316905476
  42    0.0012000329439869
  43    -0.00019746568071923
  44    0.0001182610450083
  45    0.00019572921819463
  46    -0.0012624744301209
  47    0.0037551393587956
  48    -0.016795124211715
  49     0.031469241005751
  50     -0.01392915975486
  51    0.00067801989819075
  52    0.0014776969243724
  53    0.0048082400533813
  54     -0.00214731943188
  55    -0.004667756630807
  56    -0.014936499479734
  57    0.0023346540058954
  58    0.0057445578952344
  59     0.021809710771234
  60     -0.20129517106635
  61     -0.47894349029462
  62     -0.48273038468854
  63     -0.43357080796747
  64      -0.2803408930663
  65    -0.054083637159223
  66     -0.12836789478003
  67     -0.13067659564541
  68     -0.11765350448458
  69    -0.075327869636287
  70    -0.0010658442475066
  71    -0.0010670254540599
  72    -0.00098054201325096
  73    0.00025921590584674
  74    0.00029218080058275
  75    0.00088712756817864
  76    0.00057294546749969
  77    -0.00022416267764528
  78    0.0015135706917017
  79    -0.0028146549671734
  80    -0.0014910300546595
  81    0.0015525845512049
  82    -0.00083853258399238
  83    0.00078408711078701
  84    0.0028636664714501
  85    -0.0014347027400516
  86      0.00137314053502
  87    0.0037564121711783
  88    -0.0032801898889927
  89    0.0030828535322061
  90    -0.00010629936762626
  91    0.00031181266244724
  92    -5.147336994056e-05
  93    0.00017675522226462
  94    -0.0002483752243615
  95    7.7414905229346e-05
  96    -0.00050917068203325
  97    0.00037031699472206
  98    0.0032623783308367
  99    -0.0010522168374062
 100    -7.6967851530873e-05
 101    -0.00069412193201405
 102    -0.0018311212911118
 103    -0.00018378405390764
 104    -0.0012500879606897
 105    -0.0035837885988242
 106    0.00080130671440304
 107    -0.00049861149640384
 108    4.5390890782404e-05
 109    -0.00014082319635285
 110    5.5476550257744e-05
 111    -9.5034400006649e-05
 112    -3.0585928588218e-05
 113    -0.00010070385587287
 114    0.00068137262240638
 115    -0.0014329182470776
 116    0.00028895002827106
 117    0.00075406139496763
 118    0.00040693526168153
 119    -0.0007892653883257
 120    0.0013704755683706
 121    0.00074411085746001
 122    -0.0013015297540423
 123    0.0019864325341871
 124    0.00093053526506671
 125    -0.0026917331389217
 126    -0.00010614559632282
 127    -0.00013540675860182
 128    -1.2870041137116e-05
 129    0.0001058547338633
 130    0.00017965845961207
 131    0.0013678035584269
 132    -0.0089692200279331
 133     0.011347215919906
 134    0.0065346706052589
 135     0.018071071002525
 136    -0.0080035130446473
 137    -0.010004455761363
 138      0.03064215934665
 139     -0.01380876852005
 140    -0.017432577010414
 141     0.050506291704112
 142    -0.022134070917448
 143    -0.027766976736361
 144    0.00048518765508363
 145    0.0019647057151709
 146    -0.00045177383654899
 147    -0.00086838258957933
 148    0.0012409574592877
 149    -8.1874417974102e-05
 150     0.000557592885523
 151    -0.002245185385414
 152    0.0045303465858821
 153    -0.011791107071832
 154    -0.025701019821939
 155    -0.0080044099904534
 156    -0.019903133944128
 157     -0.04331740225919
 158    -0.013350245683171
 159    -0.031869058145139
 160    -0.073903377752337
 161    -0.022203306601186
 162    0.00070917396953778
 163    0.0013556838870243
 164    0.0016571099531055
 165    0.0020452239765588
 166    0.0012718934556316
 167    -0.00020085753321152
 168    0.0013304927193214
 169    -0.0030810232176847
 170    0.0026417318873968
 171    -0.013244289074939
 172    0.0077782359107745
 173    -0.021922872778986
 174    -0.022201994792725
 175     0.013102657677149
 176    -0.036790145237004
 177    -0.037137998769812
 178      0.02309563389721
 179    -0.062105478462283
 180    0.00098988202211876
 181    0.0012773991190256
 182    0.0015530998885765
 183    0.0016691708624318
 184    0.00079496551670479
 Sym= A
 Ene=               2
 Spin= Alpha
 Occup=    1.00000
   1    -0.00051488386678962
   2    0.0015250851956291
   3    -0.0069092981550286
   4    0.0083677278956769
   5    -0.0020154024739547
   6    -0.0021767133921714
   7    -0.0022255628418241
   8    0.00050574154036348
   9    0.0069497095630968
  10    0.0070862501130526
  11    -0.001620824337824
  12    -0.0055215115667627
  13    -0.014249605127664
  14    0.0069230989311863
  15    -0.0013746745541522
  16    -0.00013052209251938
  17    0.0004213081666169
  18    0.0014505974652531
  19    0.0021720378455827
  20    -0.0012381715548113
  21    -0.0019759921292493
  22    0.0012196637726851
  23    0.00051704361605758
  24    0.0049898545264972
  25    -2.0144247768212e-05
  26    0.00033436569514327
  27    0.00014483022917011
  28    0.00011147968088258
  29    -0.00034979232149775
  30    -0.00027010086598317
  31    -0.00066390636762673
  32    -0.0022475313026192
  33    -0.0058798220546725
  34    -0.0028871779012557
  35    0.0092134906474341
  36    -0.076074828114264
  37     0.042438557353649
  38     0.010232396908201
  39    -0.073251892293629
  40     0.041430301992377
  41    0.0006310211087396
  42    0.0012348060622068
  43     -0.00113898300844
  44    0.00049702379072418
  45    -0.0016929106717178
  46    -0.00083342290456526
  47    0.0024797521680641
  48    -0.011079234985395
  49     0.021070785978378
  50    -0.0075544874454195
  51    4.4083534920559e-05
  52    -0.0065214085801432
  53    0.0033023055725012
  54    -0.0001151225057834
  55     0.020054897095393
  56    -0.010088176955888
  57    -0.00092727162542199
  58    -0.028261432745259
  59     0.015721005170286
  60      0.52478932055691
  61     -0.15477636684306
  62      -0.4639435593647
  63      0.13091969094713
  64      0.48633748051778
  65      0.14098167839226
  66     -0.04074091457525
  67     -0.12459804480257
  68     0.034781653379749
  69      0.12900282189581
  70    0.00059363468181128
  71    -0.0013496030883438
  72    -0.00055241028456431
  73    0.00067544106556401
  74    0.0017073268108683
  75    -7.8919435583389e-05
  76    -0.0015208093559273
  77    -0.00029241024822815
  78    0.0019351035461751
  79    -0.0025939930889063
  80    -0.0053213216343668
  81    0.0024305960511335
  82    3.7291192547359e-05
  83    0.0019501618089944
  84     0.004273942697139
  85    0.0001135075776474
  86    0.0033027775045569
  87    0.0065491834916969
  88    -0.0011618850822313
  89    0.0080870273776035
  90    -3.6912561723909e-05
  91    0.00054286618864345
  92    6.1547700547885e-05
  93    0.00029642306679825
  94    -9.0980720904202e-05
  95    -9.8895509075055e-05
  96    0.00066368637964096
  97    -0.0012810804692751
  98    -9.7312568302456e-05
  99    0.00089671669533214
 100    0.00045666199862857
 101    -0.00078704217930817
 102    0.0016063835670805
 103    0.00064709637628312
 104    -0.0012643295539723
 105    0.0024753977314482
 106    0.0023337956455061
 107    -0.0028358573179751
 108    -0.00017694922681863
 109    -0.00012587917807761
 110    2.1442540771205e-05
 111    0.00012321720365644
 112     2.41089995934e-05
 113    0.00027012554007577
 114    -0.0017976788199938
 115    0.0026167625596175
 116    0.0045238249331804
 117    -0.0030061173154249
 118    -0.00081786899302305
 119    -0.00082798201335811
 120    -0.0054029751402695
 121    -0.0013606466552869
 122    -0.0014994880832199
 123    -0.0077189260507315
 124    -0.0046329498627614
 125    -0.0013589826219996
 126    0.00012663964075381
 127    -0.00021916989331073
 128    -0.00019121917952937
 129    -0.00053504387156511
 130    -0.00021072647962858
 131    7.9002532375388e-05
 132    -0.0005125148228082
 133    0.0001057827757135
 134    0.0010166242598307
 135    -0.0031730810759615
 136     0.022896936393143
 137    -0.013944421307992
 138    -0.0053317672523028
 139     0.038615605585568
 140    -0.023631832696926
 141    -0.0090283694295378
 142     0.065522892525755
 143    -0.039931908714157
 144    -0.0025944406609895
 145    -0.0004361159116213
 146    0.0013270707432298
 147    -0.0014283596301202
 148    -0.00011700361195825
 149    -0.00042605623353032
 150    0.0028453424548621
 151    -0.0053327050586492
 152    0.0036238570593332
 153    -0.016228692977719
 154    0.0098706677742946
 155     0.013859322542901
 156    -0.027545719365009
 157     0.016574548037573
 158     0.023278593684452
 159    -0.043782677854773
 160      0.02827122144812
 161     0.040372769031662
 162    -0.0023956318784883
 163    2.5150475478454e-05
 164    -9.5047285378355e-06
 165    0.00086353106680205
 166    -0.001254457969835
 167     0.001087589283495
 168    -0.0071239806215377
 169    0.0093740329455072
 170    0.0032731515288304
 171     0.015793550308334
 172    0.0090163879674758
 173    -0.0078060697880477
 174     0.026650421605812
 175     0.015469876640064
 176    -0.013070845012339
 177     0.044003681935888
 178     0.024868261225275
 179    -0.022775825824935
 180    0.00094656039863169
 181    -0.00021193455898429
 182    0.0011504978487327
 183    -0.00078569434401927
 184    -0.0011652291483158
 Sym= A
 Ene=               3
 Spin= Alpha
 Occup=    1.00000
   1    0.0009972403382504
   2    -0.0029515374082001
   3     0.013400585597061
   4    -0.014466105710842
   5    0.0046655903894538
   6    0.0043688509607987
   7    -0.0025493865368796
   8    -0.0010423946006421
   9    -0.014013367405041
  10    0.0081151053650667
  11    0.0033440834419934
  12     0.013263301057895
  13     -0.01555106588614
  14    -0.013740099813669
  15    0.0018787849519399
  16    7.8200152673129e-05
  17    0.00050362599138809
  18    -0.0034024829482206
  19    0.0022532445933307
  20    0.0021828916380569
  21      0.00339598134174
  22    0.0016094055784984
  23    -0.0020288138457038
  24    0.0052258597161357
  25    1.6813314931481e-05
  26    -0.00060519430597032
  27    6.3329954541622e-05
  28    -1.2598630868664e-05
  29    -0.00037244518642945
  30    0.00049413655516998
  31    -0.00070224170066942
  32    0.0049522555905742
  33     0.012110735836756
  34     0.009453274202029
  35    -0.024701384690712
  36    -0.080574295798649
  37    -0.072928725850698
  38    -0.027708648065129
  39    -0.078729708553073
  40     -0.07091784438665
  41    -0.00072504458911373
  42    -0.0020999571291868
  43    -0.0011412673295671
  44    -0.001112800053235
  45     -0.00183687629451
  46    -0.00060853358391021
  47    0.0018142423864941
  48    -0.0080868826507224
  49     0.010043919555919
  50    0.0019742416688807
  51    0.0023363887630146
  52    0.0044964614847097
  53    0.0042158089320875
  54    -0.0072438264265404
  55    -0.014206161262562
  56    -0.013410042414201
  57    0.0063492231499651
  58    0.0073195300721601
  59    0.0058593368129708
  60     -0.55573373156527
  61       0.3726962098042
  62     -0.30124322203515
  63     -0.11361236064073
  64      0.46174646384773
  65     -0.14551693864784
  66     0.096016565855478
  67    -0.078683804453457
  68    -0.031178644811392
  69      0.11884562694976
  70    -0.00018544042874888
  71    0.0018424290097895
  72    5.7470488290212e-05
  73    -0.0015978291813466
  74    0.0013404472543305
  75    -0.00022278918267645
  76    -0.0018834257841882
  77    0.00017049919607442
  78    -0.0011401136925147
  79    0.0017250451043493
  80    0.0024248573020079
  81    -0.00042042230321012
  82    0.0015521388337018
  83    -0.00049730744062687
  84    -0.00072036308549493
  85    0.0024571555497784
  86    -0.00090432183091586
  87    -0.0020352120628963
  88    0.0065318272294746
  89    -0.0020248183160913
  90    4.3134592700162e-05
  91    -0.00031011178173023
  92    0.00012781014117377
  93    -5.3133615158937e-05
  94    0.00031408146525272
  95    -0.00018101868868917
  96    0.0011886126104157
  97    -0.00091503143900585
  98    -0.0072151148312193
  99    0.0025471171367155
 100    0.00054190482385658
 101    0.00090445372231253
 102    0.0044513097677083
 103    0.00099375745445342
 104    0.0017626264133597
 105    0.0083261905239546
 106    -0.00016375101728704
 107    -0.0010737438329073
 108    -0.00015525851910649
 109    0.00028851713292104
 110    -0.00013359621999429
 111    0.00018912012939659
 112    0.00016096990902083
 113    0.0004005070971753
 114    -0.0026828483225583
 115     0.004667435785489
 116    0.0029472414169037
 117    -0.003314651006028
 118    -0.0015382442926136
 119    0.00099051976703266
 120    -0.0058706756883233
 121    -0.0027425884692053
 122    0.0014937002482369
 123    -0.0094797434439851
 124    -0.005320518513393
 125    0.0046150138687638
 126    0.0003849498399579
 127    0.0001076842479551
 128    -0.00010945553932272
 129    -0.00050855186136752
 130    -0.00063950513757542
 131     0.003684255979098
 132    -0.024146621756344
 133     0.030150272624185
 134     0.030433161737692
 135    -0.010490711919205
 136     -0.02780284010372
 137    -0.029951513713139
 138    -0.017497772633748
 139    -0.047315335886974
 140    -0.051387892732126
 141    -0.029785447533976
 142    -0.083035102576423
 143    -0.091863781408065
 144     0.001194704733599
 145    -0.0017922832850757
 146    4.8774475421721e-05
 147    -1.0418917769071e-05
 148    -0.00041264209441099
 149    -0.00049070854167599
 150     0.003184510776594
 151    -0.0034601315522169
 152    -0.0058604233519286
 153    -0.00068600737662801
 154    -0.0051535525232007
 155    -0.011277395272627
 156    -0.001207127479305
 157    -0.0089057773395871
 158    -0.019222276808975
 159    -0.0027498137925438
 160     -0.01326349774543
 161    -0.032102202746123
 162    0.00081715248762103
 163    0.00044144450007955
 164    0.00034345162139554
 165    0.00038528308250459
 166    0.0015494618898931
 167    -0.0028928494300757
 168     0.018835372162983
 169    -0.022654912679808
 170    -0.025959841714074
 171    0.00049587613978113
 172     -0.02914086456244
 173    -0.021810550069311
 174    0.00057243606657787
 175    -0.049168087172413
 176    -0.036474007186006
 177    2.9470469075302e-05
 178     -0.08816741533348
 179    -0.063881074225766
 180    0.00070082708068572
 181    0.00026002598147657
 182    0.00014760545359294
 183    0.0011235027322928
 184    -0.0018947674249337