[Molden Format]
made by pyscf v[2.1.1]
[Atoms] (AU)
Fe   1   26     3.17068844873907     0.00098706064664     0.12237737881307
O   2   8     0.00000000000000     0.00000000000000    -0.89004350580623
Fe   3   26    -3.17068844873907    -0.00098706064664     0.12237737881307
Cl   4   17     3.53383895113107    -2.07485195383062     3.76228752659000
Cl   5   17     5.54152580550813    -1.85590924879884    -2.78672786652360
Cl   6   17     4.48169216485503     3.92976278472880    -0.95330240907949
Cl   7   17    -3.53383895113107     2.07485195383062     3.76228752659000
Cl   8   17    -5.54152580550813     1.85590924879884    -2.78672786652360
Cl   9   17    -4.48169216485503    -3.92976278472880    -0.95330240907949
[GTO]
1 0
 s    6 1.00
          60923.640643  0.0017552243692958
          9147.8893982   0.013449023284001
          2081.3505927   0.066678874640978
          587.55977067    0.23176348548844
           191.0904399    0.46945550248188
          65.732730112     0.3596824938678
 s    3 1.00
          127.25891928   -0.10723431835929
           14.83091301    0.62971616328466
          6.0653307408    0.44472317896179
 s    3 1.00
           10.44994371   -0.21694289195548
          1.7245228003    0.69457867408393
         0.71772177325    0.43298308896347
 s    1 1.00
        0.091449828308                   1
 s    1 1.00
        0.033706691021                   1
 p    5 1.00
          773.43750995  0.0091440529992506
          182.15149714   0.067887577136571
          57.547272758    0.26167978878504
          20.614988935    0.51088040113251
           7.634855789    0.33235475570224
 p    3 1.00
           3.871932799    0.33193859098144
          1.4924724132     0.5553666555499
         0.56061284958    0.23106034201617
 p    1 1.00
              0.134915                   1
 d    4 1.00
          38.968133419   0.033335938558743
          10.800067078    0.17766212505983
          3.6136457999      0.441281781625
          1.2129967888    0.57089200490673
 d    1 1.00
          0.3652439317                   1
 f    1 1.00
                 1.598                   1

2 0
 s    5 1.00
          2266.1767785  -0.0053893503921743
          340.87010191   -0.04023472138896
          77.363135167   -0.18008184205526
           21.47964494   -0.46828857657651
          6.6589433124   -0.44692617160187
 s    1 1.00
         0.80975975668                   1
 s    1 1.00
         0.25530772234                   1
 p    3 1.00
          17.721504317   0.062630248763161
           3.863550544    0.33331138482352
          1.0480920883    0.74148638308122
 p    1 1.00
         0.27641544411                   1
 d    1 1.00
                   1.2                   1

3 0
 s    6 1.00
          60923.640643  0.0017552243692958
          9147.8893982   0.013449023284001
          2081.3505927   0.066678874640978
          587.55977067    0.23176348548844
           191.0904399    0.46945550248188
          65.732730112     0.3596824938678
 s    3 1.00
          127.25891928   -0.10723431835929
           14.83091301    0.62971616328466
          6.0653307408    0.44472317896179
 s    3 1.00
           10.44994371   -0.21694289195548
          1.7245228003    0.69457867408393
         0.71772177325    0.43298308896347
 s    1 1.00
        0.091449828308                   1
 s    1 1.00
        0.033706691021                   1
 p    5 1.00
          773.43750995  0.0091440529992506
          182.15149714   0.067887577136571
          57.547272758    0.26167978878504
          20.614988935    0.51088040113251
           7.634855789    0.33235475570224
 p    3 1.00
           3.871932799    0.33193859098144
          1.4924724132     0.5553666555499
         0.56061284958    0.23106034201617
 p    1 1.00
              0.134915                   1
 d    4 1.00
          38.968133419   0.033335938558743
          10.800067078    0.17766212505983
          3.6136457999      0.441281781625
          1.2129967888    0.57089200490673
 d    1 1.00
          0.3652439317                   1
 f    1 1.00
                 1.598                   1

4 0
 s    5 1.00
          10449.827566  0.0054265953789407
          1571.7365221   0.040626378128836
          357.12065523    0.18359747852877
          100.25185935    0.47438948768198
          30.812727554    0.43735181104122
 s    3 1.00
          51.923789434  -0.092754154848099
          5.7045760975    0.56380825544207
          2.3508376809    0.50367044629712
 s    1 1.00
         0.44605124672                   1
 s    1 1.00
          0.1684885619                   1
 p    5 1.00
          307.66790569  -0.0088797025588865
          72.102015515  -0.064284071721237
          22.532680262   -0.24288739736006
          7.8991765444   -0.48340836369878
          2.8767268321   -0.38952563875509
 p    1 1.00
         0.77459363955                   1
 p    1 1.00
         0.21037699698                   1
 d    1 1.00
                  0.65                   1

5 0
 s    5 1.00
          10449.827566  0.0054265953789407
          1571.7365221   0.040626378128836
          357.12065523    0.18359747852877
          100.25185935    0.47438948768198
          30.812727554    0.43735181104122
 s    3 1.00
          51.923789434  -0.092754154848099
          5.7045760975    0.56380825544207
          2.3508376809    0.50367044629712
 s    1 1.00
         0.44605124672                   1
 s    1 1.00
          0.1684885619                   1
 p    5 1.00
          307.66790569  -0.0088797025588865
          72.102015515  -0.064284071721237
          22.532680262   -0.24288739736006
          7.8991765444   -0.48340836369878
          2.8767268321   -0.38952563875509
 p    1 1.00
         0.77459363955                   1
 p    1 1.00
         0.21037699698                   1
 d    1 1.00
                  0.65                   1

6 0
 s    5 1.00
          10449.827566  0.0054265953789407
          1571.7365221   0.040626378128836
          357.12065523    0.18359747852877
          100.25185935    0.47438948768198
          30.812727554    0.43735181104122
 s    3 1.00
          51.923789434  -0.092754154848099
          5.7045760975    0.56380825544207
          2.3508376809    0.50367044629712
 s    1 1.00
         0.44605124672                   1
 s    1 1.00
          0.1684885619                   1
 p    5 1.00
          307.66790569  -0.0088797025588865
          72.102015515  -0.064284071721237
          22.532680262   -0.24288739736006
          7.8991765444   -0.48340836369878
          2.8767268321   -0.38952563875509
 p    1 1.00
         0.77459363955                   1
 p    1 1.00
         0.21037699698                   1
 d    1 1.00
                  0.65                   1

7 0
 s    5 1.00
          10449.827566  0.0054265953789407
          1571.7365221   0.040626378128836
          357.12065523    0.18359747852877
          100.25185935    0.47438948768198
          30.812727554    0.43735181104122
 s    3 1.00
          51.923789434  -0.092754154848099
          5.7045760975    0.56380825544207
          2.3508376809    0.50367044629712
 s    1 1.00
         0.44605124672                   1
 s    1 1.00
          0.1684885619                   1
 p    5 1.00
          307.66790569  -0.0088797025588865
          72.102015515  -0.064284071721237
          22.532680262   -0.24288739736006
          7.8991765444   -0.48340836369878
          2.8767268321   -0.38952563875509
 p    1 1.00
         0.77459363955                   1
 p    1 1.00
         0.21037699698                   1
 d    1 1.00
                  0.65                   1

8 0
 s    5 1.00
          10449.827566  0.0054265953789407
          1571.7365221   0.040626378128836
          357.12065523    0.18359747852877
          100.25185935    0.47438948768198
          30.812727554    0.43735181104122
 s    3 1.00
          51.923789434  -0.092754154848099
          5.7045760975    0.56380825544207
          2.3508376809    0.50367044629712
 s    1 1.00
         0.44605124672                   1
 s    1 1.00
          0.1684885619                   1
 p    5 1.00
          307.66790569  -0.0088797025588865
          72.102015515  -0.064284071721237
          22.532680262   -0.24288739736006
          7.8991765444   -0.48340836369878
          2.8767268321   -0.38952563875509
 p    1 1.00
         0.77459363955                   1
 p    1 1.00
         0.21037699698                   1
 d    1 1.00
                  0.65                   1

9 0
 s    5 1.00
          10449.827566  0.0054265953789407
          1571.7365221   0.040626378128836
          357.12065523    0.18359747852877
          100.25185935    0.47438948768198
          30.812727554    0.43735181104122
 s    3 1.00
          51.923789434  -0.092754154848099
          5.7045760975    0.56380825544207
          2.3508376809    0.50367044629712
 s    1 1.00
         0.44605124672                   1
 s    1 1.00
          0.1684885619                   1
 p    5 1.00
          307.66790569  -0.0088797025588865
          72.102015515  -0.064284071721237
          22.532680262   -0.24288739736006
          7.8991765444   -0.48340836369878
          2.8767268321   -0.38952563875509
 p    1 1.00
         0.77459363955                   1
 p    1 1.00
         0.21037699698                   1
 d    1 1.00
                  0.65                   1

[5d]
[7f]
[9g]

[MO]
 Sym= A
 Ene=               0
 Spin= Alpha
 Occup=    1.00000
   1    6.3162025456639e-05
   2    -0.0013746881692315
   3    -0.0041233579110066
   4     0.046971555799656
   5    -0.029487051673618
   6    0.0043558798915714
   7    0.00061687258051561
   8     0.014277518886908
   9    -0.013345240902636
  10    -0.0018784891943111
  11    -0.046203497502482
  12    -0.047717850631407
  13    -0.0014871103542299
  14     0.084622119286649
  15    -0.068202775969308
  16    -0.066179431346594
  17     0.011272945491896
  18     0.063259361915202
  19    -0.003613099338189
  20     -0.03798566311944
  21    -0.048861139555095
  22    0.0034212334264558
  23     0.032573195579424
  24    -0.0018928481056844
  25    -0.0012302527601476
  26    0.0032584483396148
  27    0.00018069392396857
  28    0.0020589547933487
  29    7.0424255653991e-05
  30    -0.0017383098688743
  31    -4.4394492651101e-05
  32      0.14390949476399
  33     -0.15371141539409
  34     -0.11436994627614
  35    -4.8013182364498e-16
  36    1.0658488462927e-15
  37      0.52583285424142
  38    -4.2080728541155e-16
  39    9.246258281582e-16
  40      0.45008055701877
  41      0.01296700780689
  42    -1.1450823989701e-17
  43    2.169377633703e-17
  44    -0.001707470160944
  45    0.00017724194610247
  46    6.3162025456623e-05
  47    -0.0013746881692314
  48    -0.0041233579110068
  49     0.046971555799656
  50    -0.029487051673618
  51    -0.0043558798915713
  52    -0.00061687258051561
  53     0.014277518886908
  54     0.013345240902636
  55    0.0018784891943109
  56    -0.046203497502482
  57     0.047717850631407
  58    0.0014871103542302
  59     0.084622119286649
  60    -0.068202775969308
  61     0.066179431346594
  62    -0.011272945491896
  63     0.063259361915202
  64    -0.0036130993381886
  65     -0.03798566311944
  66     0.048861139555095
  67    -0.0034212334264558
  68     0.032573195579424
  69    -0.0018928481056841
  70    -0.0012302527601476
  71    -0.0032584483396148
  72    -0.00018069392396857
  73    0.0020589547933487
  74    7.0424255653982e-05
  75    0.0017383098688743
  76    4.4394492651116e-05
  77    -0.001760402121816
  78     0.011965426201316
  79    -0.022430374194743
  80    -0.021302002426509
  81    0.0056405628494743
  82    -0.0060953220124149
  83    0.0066584853560516
  84     0.010961648768178
  85     -0.01022679451928
  86     0.012441592708826
  87     0.015745257111403
  88    -0.026861132637479
  89     0.027826284592109
  90    -0.0013275183544363
  91    0.0028270480205975
  92    0.0012509795350382
  93    0.0022976480497008
  94    -0.0017036708663092
  95    0.00067750931069898
  96    -0.0039879059455271
  97    -0.0014179490762317
  98      0.02856569565384
  99    -0.0097903579225055
 100    0.0023246113963474
 101    -0.00095673580906672
 102      -0.0164947057859
 103     0.002672954072397
 104    -0.0029925364723717
 105    -0.031121404304523
 106     0.015052660475318
 107    0.0041460790414946
 108    0.0015952179246546
 109    -0.0014280304352748
 110    0.0018156453527731
 111    -0.0018022740679379
 112    -1.6265105072378e-05
 113    0.00013716143596125
 114    -0.00049198786814269
 115    -0.0060291079673586
 116     0.015151205701273
 117    -0.0045624689017718
 118    -0.0015776844670131
 119    -0.0053759785995173
 120    -0.0078692295253581
 121    -0.00094773092784895
 122    -0.0091671702023023
 123    -0.010707039414881
 124    -0.012057353829476
 125    -0.017964941288839
 126    -0.00068607673909689
 127    -0.0013194615512665
 128    -0.00069513575147585
 129    -0.0010477392444716
 130    -0.00023041603117294
 131    -0.001760402121816
 132     0.011965426201316
 133    -0.022430374194743
 134    -0.021302002426509
 135    -0.0056405628494743
 136    0.0060953220124149
 137    0.0066584853560516
 138    -0.010961648768178
 139      0.01022679451928
 140     0.012441592708826
 141    -0.015745257111403
 142     0.026861132637479
 143     0.027826284592109
 144    -0.0013275183544363
 145    -0.0028270480205975
 146    -0.0012509795350382
 147    0.0022976480497008
 148    -0.0017036708663092
 149    0.00067750931069897
 150    -0.003987905945527
 151    -0.0014179490762319
 152      0.02856569565384
 153    0.0097903579225054
 154    -0.0023246113963473
 155    -0.00095673580906682
 156     0.016494705785899
 157    -0.0026729540723969
 158    -0.0029925364723719
 159     0.031121404304523
 160    -0.015052660475318
 161    0.0041460790414943
 162    0.0015952179246545
 163    0.0014280304352748
 164    -0.0018156453527731
 165    -0.0018022740679379
 166    -1.6265105072375e-05
 167    0.00013716143596126
 168    -0.00049198786814273
 169    -0.0060291079673586
 170     0.015151205701273
 171    0.0045624689017719
 172    0.0015776844670131
 173    -0.0053759785995172
 174    0.0078692295253582
 175    0.00094773092784904
 176    -0.0091671702023022
 177     0.010707039414881
 178     0.012057353829477
 179    -0.017964941288839
 180    -0.00068607673909689
 181    0.0013194615512665
 182    0.00069513575147586
 183    -0.0010477392444717
 184    -0.00023041603117294
 Sym= B
 Ene=               1
 Spin= Alpha
 Occup=    1.00000
   1    0.0018951451163098
   2    -0.0053289015213156
   3     0.026838115121724
   4    -0.011241399963022
   5    0.0045962584637189
   6    0.0047151338250379
   7    -0.012650443256786
   8    0.0011266613303556
   9    -0.015981601433783
  10     0.041091141963659
  11    -0.0039509777416336
  12     0.016650781182391
  13    -0.090147918424301
  14    0.0045492305353309
  15    0.0014434566832807
  16    -0.016505349239232
  17     0.025632970124564
  18    -0.034569756733256
  19      0.11147805873743
  20    0.0023764262490658
  21    -0.0078246867708603
  22     0.016192061775911
  23    -0.016265702783535
  24     0.071187008771981
  25    -0.00047653459701777
  26    -0.00034943810858612
  27    0.0006246864972066
  28    0.0009293764331115
  29    -0.0019768980758595
  30    0.00073644345007525
  31    -0.0041453404950239
  32    -3.4491289297861e-16
  33    -5.7091691822701e-16
  34    1.4495479973643e-15
  35     -0.10173814547999
  36     -0.54736433235569
  37    1.1163491064986e-15
  38    -0.082329572057477
  39     -0.47143009003846
  40    9.5609943556209e-16
  41    1.8573603198743e-17
  42    -0.0027715901116029
  43    -0.011232236861802
  44      1.5044928163e-17
  45    3.7806757136342e-19
  46    -0.0018951451163099
  47    0.0053289015213156
  48    -0.026838115121724
  49     0.011241399963022
  50    -0.004596258463719
  51     0.004715133825038
  52    -0.012650443256786
  53    -0.0011266613303555
  54    -0.015981601433783
  55     0.041091141963659
  56    0.0039509777416336
  57     0.016650781182391
  58    -0.090147918424301
  59    -0.0045492305353306
  60    -0.0014434566832808
  61    -0.016505349239232
  62     0.025632970124564
  63     0.034569756733256
  64     -0.11147805873743
  65    -0.002376426249066
  66    -0.0078246867708603
  67     0.016192061775911
  68     0.016265702783535
  69    -0.071187008771981
  70    0.00047653459701777
  71    -0.00034943810858613
  72    0.0006246864972066
  73    -0.00092937643311149
  74    0.0019768980758595
  75    0.00073644345007527
  76    -0.0041453404950239
  77    -0.00031092199979824
  78    0.0019476664732648
  79    -0.00064763406121245
  80    -0.012928146342133
  81    0.0034803154432192
  82    0.0034065405471321
  83    0.0032497597629215
  84    0.0069632419440288
  85    0.0057459192112264
  86    0.0044860457207299
  87    0.0064533330182694
  88     0.010149372647616
  89     0.019009002568708
  90    -0.00062744535660498
  91    0.0021105621602805
  92    0.00089124463125488
  93    0.00087392532770576
  94    7.5857682910494e-05
  95    -0.00018657748157458
  96    0.0010677013783756
  97     0.001190267900353
  98    -0.012300971339893
  99    0.0030433401468185
 100    0.0022729707215753
 101    -0.001147884704925
 102    0.0051708208346152
 103    0.0036899526249115
 104    -0.00065453787748648
 105     0.011477909997637
 106    0.0085278498872642
 107    -0.011717067581987
 108    -0.0017797799784325
 109    0.00010927805575611
 110    -0.0002623742195051
 111    0.00070693332190982
 112    0.00044692136499731
 113    0.0021588856234738
 114    -0.014353018620285
 115      0.02292677694686
 116     0.027086985803605
 117    -0.012293233345589
 118    -0.009252671280329
 119    0.0021090440048756
 120    -0.022640238214795
 121    -0.015919549818923
 122    0.0028731035150714
 123    -0.034778349772836
 124    -0.036798851947699
 125     0.012047835953827
 126    0.0013292956185471
 127    -0.00050769427026341
 128    -0.0022282147252402
 129    -0.0046866247181347
 130    -0.0028908592929846
 131    0.00031092199979823
 132    -0.0019476664732647
 133    0.00064763406121233
 134     0.012928146342133
 135    0.0034803154432192
 136    0.0034065405471322
 137    -0.0032497597629214
 138    0.0069632419440287
 139    0.0057459192112265
 140    -0.0044860457207298
 141    0.0064533330182693
 142     0.010149372647616
 143    -0.019009002568708
 144    0.00062744535660497
 145    0.0021105621602805
 146    0.00089124463125488
 147    -0.00087392532770575
 148    -7.5857682910498e-05
 149    0.00018657748157458
 150    -0.0010677013783756
 151    -0.001190267900353
 152     0.012300971339893
 153    0.0030433401468185
 154    0.0022729707215753
 155     0.001147884704925
 156    0.0051708208346152
 157    0.0036899526249115
 158    0.00065453787748644
 159     0.011477909997637
 160    0.0085278498872642
 161     0.011717067581987
 162    0.0017797799784325
 163    0.00010927805575611
 164    -0.00026237421950511
 165    -0.00070693332190983
 166    -0.00044692136499731
 167    -0.0021588856234738
 168     0.014353018620285
 169     -0.02292677694686
 170    -0.027086985803605
 171    -0.012293233345589
 172    -0.009252671280329
 173    -0.0021090440048756
 174    -0.022640238214795
 175    -0.015919549818923
 176    -0.0028731035150715
 177    -0.034778349772836
 178    -0.036798851947699
 179    -0.012047835953827
 180    -0.0013292956185471
 181    -0.00050769427026341
 182    -0.0022282147252402
 183    0.0046866247181347
 184    0.0028908592929846
 Sym= B
 Ene=               2
 Spin= Alpha
 Occup=    1.00000
   1    -0.010256670785409
   2     0.028679838552152
   3     -0.14588956053545
   4     0.086356106265735
   5    -0.0016137544539354
   6    -0.024320683429684
   7    -0.0025818891083773
   8    -0.0086209420902074
   9     0.082466531795841
  10    0.0084078727632561
  11     0.028960143909746
  12    -0.084090342308927
  13    -0.020274829401777
  14    -0.016175923075781
  15    -0.056240285694428
  16      0.10301690707022
  17     0.010459783798629
  18      0.12888805601977
  19     0.022322842661768
  20    -0.026588154861567
  21     0.049356002880386
  22    0.0055251409529048
  23     0.061601530285145
  24     0.014493614994954
  25    0.0025500052607581
  26    0.0013418538183816
  27    0.00072534880895116
  28    -0.0039122189632671
  29    -0.0005293016619999
  30    -0.0040557317323235
  31    -0.00055850461528943
  32    1.6007736765325e-15
  33    -2.6486985295359e-15
  34    -1.6421299149319e-15
  35       0.5147663999276
  36     -0.10439385852082
  37    -1.3657643515858e-16
  38      0.42403831988579
  39    -0.090232041332139
  40    -1.6746691230379e-16
  41    2.2131882829984e-17
  42     0.013592826190826
  43    -0.0020324805150783
  44    -5.5964943015578e-17
  45    7.8674711635475e-19
  46     0.010256670785409
  47    -0.028679838552152
  48      0.14588956053545
  49    -0.086356106265735
  50    0.0016137544539354
  51    -0.024320683429684
  52    -0.0025818891083773
  53    0.0086209420902075
  54     0.082466531795842
  55    0.0084078727632561
  56    -0.028960143909747
  57    -0.084090342308927
  58    -0.020274829401777
  59     0.016175923075781
  60     0.056240285694428
  61      0.10301690707022
  62     0.010459783798629
  63     -0.12888805601977
  64    -0.022322842661768
  65     0.026588154861567
  66     0.049356002880386
  67    0.0055251409529049
  68    -0.061601530285145
  69    -0.014493614994953
  70    -0.0025500052607581
  71    0.0013418538183816
  72    0.00072534880895116
  73    0.0039122189632671
  74    0.0005293016619999
  75    -0.0040557317323235
  76    -0.00055850461528943
  77    -0.0024203454635208
  78     0.016244869768501
  79    -0.027562393844855
  80    -0.027793431163225
  81    0.0036046697605783
  82    -0.0068146256677123
  83     0.014097929376394
  84    0.0061758260921141
  85    -0.012755132459207
  86     0.025984749053602
  87     0.013957091998493
  88    -0.020032199704556
  89     0.043414534862173
  90    -0.00099154981466021
  91    0.00061543525143558
  92    0.0010415025630379
  93    0.0009011582354036
  94    0.00025314032746805
  95    -0.0029241954619275
  96     0.019710064248438
  97    -0.037624265057826
  98    -0.016877662795048
  99     0.015890631986197
 100    -0.0056994341282671
 101    -0.0094781262348319
 102     0.029288374029661
 103     -0.01168495748781
 104    -0.018371191017142
 105     0.043568833591675
 106    -0.010913176013308
 107    -0.022703345799531
 108    -0.0016772213282779
 109    0.0008470214670267
 110    -0.00052020404420943
 111    0.0019569019021738
 112    -0.00014092624388238
 113    -0.0023697133965059
 114     0.015957836755823
 115    -0.029874535820961
 116    -0.014678561031765
 117    0.0076453604009403
 118     0.013537193981446
 119    -0.0030232138520574
 120     0.013277280906663
 121     0.026168992639878
 122    -0.0057787730810801
 123     0.025194417923889
 124     0.031803146361294
 125    -0.0067733583517022
 126    -0.00042834301449473
 127    0.00073770679504408
 128    0.00051842116661296
 129    0.0010297186671225
 130    0.00076758502445976
 131    0.0024203454635209
 132    -0.016244869768501
 133     0.027562393844855
 134     0.027793431163225
 135    0.0036046697605784
 136    -0.0068146256677123
 137    -0.014097929376394
 138    0.0061758260921143
 139    -0.012755132459207
 140    -0.025984749053602
 141     0.013957091998494
 142    -0.020032199704556
 143    -0.043414534862174
 144    0.00099154981466023
 145    0.00061543525143557
 146    0.0010415025630379
 147    -0.00090115823540361
 148    -0.00025314032746805
 149    0.0029241954619276
 150    -0.019710064248438
 151     0.037624265057826
 152     0.016877662795049
 153     0.015890631986197
 154    -0.0056994341282671
 155    0.0094781262348319
 156     0.029288374029661
 157    -0.011684957487811
 158     0.018371191017142
 159     0.043568833591676
 160    -0.010913176013309
 161     0.022703345799531
 162    0.0016772213282779
 163    0.00084702146702672
 164    -0.00052020404420944
 165    -0.0019569019021738
 166    0.00014092624388236
 167    0.0023697133965059
 168    -0.015957836755823
 169     0.029874535820961
 170     0.014678561031765
 171    0.0076453604009404
 172     0.013537193981447
 173    0.0030232138520574
 174     0.013277280906663
 175     0.026168992639878
 176    0.0057787730810802
 177      0.02519441792389
 178     0.031803146361295
 179    0.0067733583517023
 180    0.00042834301449472
 181    0.00073770679504409
 182    0.00051842116661297
 183    -0.0010297186671225
 184    -0.00076758502445974
 Sym= A
 Ene=               3
 Spin= Alpha
 Occup=    1.00000
   1     0.010194203257692
   2    -0.029910794440983
   3      0.13884141615335
   4    0.0030082943224603
   5    0.0050656246514936
   6     0.030487302276678
   7    -0.00012632607051175
   8    0.0056109436645258
   9     -0.10034290159267
  10    0.00039147283356258
  11    -0.018919626700376
  12     0.046853442924192
  13    0.00018038797749979
  14    -0.0014993790717311
  15     0.038062678327485
  16    -0.012698423281818
  17    -0.0081719834129791
  18    -0.060444326558462
  19    0.00057755470307769
  20     0.022205332462317
  21    -0.008464655379326
  22    -0.0054057042653812
  23    -0.036160413470551
  24    0.00019929693961012
  25    -0.00079157476775642
  26    -0.0018525650114911
  27    -0.00070328969504066
  28    0.0013888445322264
  29    0.00012004500573708
  30    0.0027190605486833
  31    -0.00021819883808482
  32      0.27499785987959
  33     -0.44426034513003
  34     -0.33726634852133
  35    -3.0510911733962e-15
  36    -2.8636332239062e-16
  37      -0.1474061916638
  38    -2.5340312292527e-15
  39    -2.4166957840355e-16
  40     -0.13493058804095
  41    0.0013293017046541
  42    -8.2052823374665e-17
  43    -6.3641806637749e-18
  44    -0.010516483755574
  45    0.00015872266841212
  46     0.010194203257692
  47    -0.029910794440983
  48      0.13884141615335
  49    0.0030082943224616
  50    0.0050656246514935
  51    -0.030487302276678
  52    0.00012632607051171
  53    0.0056109436645257
  54      0.10034290159267
  55    -0.00039147283356253
  56    -0.018919626700376
  57    -0.046853442924191
  58    -0.00018038797749986
  59    -0.0014993790717312
  60     0.038062678327485
  61     0.012698423281817
  62     0.008171983412979
  63    -0.060444326558461
  64    0.00057755470307753
  65     0.022205332462317
  66    0.0084646553793254
  67    0.0054057042653812
  68    -0.036160413470551
  69    0.00019929693961005
  70    -0.00079157476775639
  71    0.0018525650114911
  72    0.00070328969504065
  73    0.0013888445322264
  74    0.00012004500573708
  75    -0.0027190605486833
  76    0.00021819883808481
  77    0.0031853395871468
  78     -0.02136074281773
  79     0.039261037838161
  80     0.017568535031196
  81    -0.012088576928306
  82     0.010228355519747
  83     -0.01805462190524
  84     -0.02089710695835
  85     0.019022995853923
  86    -0.033824099617975
  87    -0.034334678520539
  88     0.026846641823381
  89    -0.046416799695272
  90    0.0023271926175816
  91    0.00011196898588336
  92    -0.002475051484366
  93    -0.0013696177246738
  94    -0.00020365291316116
  95    0.0024543061175602
  96    -0.016561543444871
  97     0.031420726513609
  98     0.010651207640609
  99    -0.014606476631758
 100     0.004833440142362
 101    0.0085572586111766
 102    -0.025987314203815
 103    0.0097663515763388
 104     0.016888949849973
 105    -0.040580820905297
 106     0.010591329737171
 107     0.019912951265165
 108    1.5333815901511e-05
 109    -0.0025278572984514
 110    0.0011653391872773
 111    0.00087073492946081
 112    -0.0018261569023986
 113    0.0028914261744442
 114    -0.019345385737149
 115     0.035033516449649
 116     0.014900975753242
 117    -0.014391944592978
 118    -0.015633030173022
 119    0.0049270720744174
 120    -0.024964389914459
 121    -0.029542723809311
 122    0.0090966108527443
 123    -0.041190560341052
 124    -0.038901938232251
 125     0.012780150311506
 126    -0.001056072040256
 127    -0.00053260766063043
 128    -0.0010929476723799
 129    -0.0022113198018199
 130    0.0021485269144734
 131    0.0031853395871468
 132     -0.02136074281773
 133     0.039261037838161
 134     0.017568535031195
 135     0.012088576928306
 136    -0.010228355519747
 137     -0.01805462190524
 138      0.02089710695835
 139    -0.019022995853923
 140    -0.033824099617975
 141     0.034334678520539
 142    -0.026846641823381
 143    -0.046416799695271
 144    0.0023271926175816
 145    -0.00011196898588337
 146     0.002475051484366
 147    -0.0013696177246738
 148    -0.00020365291316116
 149    0.0024543061175602
 150    -0.016561543444871
 151     0.031420726513609
 152     0.010651207640609
 153     0.014606476631758
 154    -0.004833440142362
 155    0.0085572586111765
 156     0.025987314203815
 157    -0.0097663515763387
 158     0.016888949849973
 159     0.040580820905297
 160    -0.010591329737171
 161     0.019912951265165
 162    1.5333815901501e-05
 163    0.0025278572984514
 164    -0.0011653391872773
 165    0.00087073492946083
 166    -0.0018261569023986
 167    0.0028914261744442
 168    -0.019345385737149
 169     0.035033516449649
 170     0.014900975753241
 171     0.014391944592978
 172     0.015633030173022
 173    0.0049270720744173
 174     0.024964389914458
 175     0.029542723809311
 176    0.0090966108527442
 177     0.041190560341051
 178      0.03890193823225
 179     0.012780150311506
 180    -0.001056072040256
 181    0.00053260766063043
 182    0.0010929476723799
 183    -0.0022113198018199
 184    0.0021485269144735
 Sym= A
 Ene=               4
 Spin= Alpha
 Occup=    1.00000
   1    0.00024786379119374