[Molden Format]
made by pyscf v[2.1.1]
[Atoms] (AU)
Fe   1   26     3.17068844873907     0.00098706064664     0.12237737881307
O   2   8     0.00000000000000     0.00000000000000    -0.89004350580623
Fe   3   26    -3.17068844873907    -0.00098706064664     0.12237737881307
Cl   4   17     3.53383895113107    -2.07485195383062     3.76228752659000
Cl   5   17     5.54152580550813    -1.85590924879884    -2.78672786652360
Cl   6   17     4.48169216485503     3.92976278472880    -0.95330240907949
Cl   7   17    -3.53383895113107     2.07485195383062     3.76228752659000
Cl   8   17    -5.54152580550813     1.85590924879884    -2.78672786652360
Cl   9   17    -4.48169216485503    -3.92976278472880    -0.95330240907949
[GTO]
1 0
 s    6 1.00
          60923.640643  0.0017552243692958
          9147.8893982   0.013449023284001
          2081.3505927   0.066678874640978
          587.55977067    0.23176348548844
           191.0904399    0.46945550248188
          65.732730112     0.3596824938678
 s    3 1.00
          127.25891928   -0.10723431835929
           14.83091301    0.62971616328466
          6.0653307408    0.44472317896179
 s    3 1.00
           10.44994371   -0.21694289195548
          1.7245228003    0.69457867408393
         0.71772177325    0.43298308896347
 s    1 1.00
        0.091449828308                   1
 s    1 1.00
        0.033706691021                   1
 p    5 1.00
          773.43750995  0.0091440529992506
          182.15149714   0.067887577136571
          57.547272758    0.26167978878504
          20.614988935    0.51088040113251
           7.634855789    0.33235475570224
 p    3 1.00
           3.871932799    0.33193859098144
          1.4924724132     0.5553666555499
         0.56061284958    0.23106034201617
 p    1 1.00
              0.134915                   1
 d    4 1.00
          38.968133419   0.033335938558743
          10.800067078    0.17766212505983
          3.6136457999      0.441281781625
          1.2129967888    0.57089200490673
 d    1 1.00
          0.3652439317                   1
 f    1 1.00
                 1.598                   1

2 0
 s    5 1.00
          2266.1767785  -0.0053893503921743
          340.87010191   -0.04023472138896
          77.363135167   -0.18008184205526
           21.47964494   -0.46828857657651
          6.6589433124   -0.44692617160187
 s    1 1.00
         0.80975975668                   1
 s    1 1.00
         0.25530772234                   1
 p    3 1.00
          17.721504317   0.062630248763161
           3.863550544    0.33331138482352
          1.0480920883    0.74148638308122
 p    1 1.00
         0.27641544411                   1
 d    1 1.00
                   1.2                   1

3 0
 s    6 1.00
          60923.640643  0.0017552243692958
          9147.8893982   0.013449023284001
          2081.3505927   0.066678874640978
          587.55977067    0.23176348548844
           191.0904399    0.46945550248188
          65.732730112     0.3596824938678
 s    3 1.00
          127.25891928   -0.10723431835929
           14.83091301    0.62971616328466
          6.0653307408    0.44472317896179
 s    3 1.00
           10.44994371   -0.21694289195548
          1.7245228003    0.69457867408393
         0.71772177325    0.43298308896347
 s    1 1.00
        0.091449828308                   1
 s    1 1.00
        0.033706691021                   1
 p    5 1.00
          773.43750995  0.0091440529992506
          182.15149714   0.067887577136571
          57.547272758    0.26167978878504
          20.614988935    0.51088040113251
           7.634855789    0.33235475570224
 p    3 1.00
           3.871932799    0.33193859098144
          1.4924724132     0.5553666555499
         0.56061284958    0.23106034201617
 p    1 1.00
              0.134915                   1
 d    4 1.00
          38.968133419   0.033335938558743
          10.800067078    0.17766212505983
          3.6136457999      0.441281781625
          1.2129967888    0.57089200490673
 d    1 1.00
          0.3652439317                   1
 f    1 1.00
                 1.598                   1

4 0
 s    5 1.00
          10449.827566  0.0054265953789407
          1571.7365221   0.040626378128836
          357.12065523    0.18359747852877
          100.25185935    0.47438948768198
          30.812727554    0.43735181104122
 s    3 1.00
          51.923789434  -0.092754154848099
          5.7045760975    0.56380825544207
          2.3508376809    0.50367044629712
 s    1 1.00
         0.44605124672                   1
 s    1 1.00
          0.1684885619                   1
 p    5 1.00
          307.66790569  -0.0088797025588865
          72.102015515  -0.064284071721237
          22.532680262   -0.24288739736006
          7.8991765444   -0.48340836369878
          2.8767268321   -0.38952563875509
 p    1 1.00
         0.77459363955                   1
 p    1 1.00
         0.21037699698                   1
 d    1 1.00
                  0.65                   1

5 0
 s    5 1.00
          10449.827566  0.0054265953789407
          1571.7365221   0.040626378128836
          357.12065523    0.18359747852877
          100.25185935    0.47438948768198
          30.812727554    0.43735181104122
 s    3 1.00
          51.923789434  -0.092754154848099
          5.7045760975    0.56380825544207
          2.3508376809    0.50367044629712
 s    1 1.00
         0.44605124672                   1
 s    1 1.00
          0.1684885619                   1
 p    5 1.00
          307.66790569  -0.0088797025588865
          72.102015515  -0.064284071721237
          22.532680262   -0.24288739736006
          7.8991765444   -0.48340836369878
          2.8767268321   -0.38952563875509
 p    1 1.00
         0.77459363955                   1
 p    1 1.00
         0.21037699698                   1
 d    1 1.00
                  0.65                   1

6 0
 s    5 1.00
          10449.827566  0.0054265953789407
          1571.7365221   0.040626378128836
          357.12065523    0.18359747852877
          100.25185935    0.47438948768198
          30.812727554    0.43735181104122
 s    3 1.00
          51.923789434  -0.092754154848099
          5.7045760975    0.56380825544207
          2.3508376809    0.50367044629712
 s    1 1.00
         0.44605124672                   1
 s    1 1.00
          0.1684885619                   1
 p    5 1.00
          307.66790569  -0.0088797025588865
          72.102015515  -0.064284071721237
          22.532680262   -0.24288739736006
          7.8991765444   -0.48340836369878
          2.8767268321   -0.38952563875509
 p    1 1.00
         0.77459363955                   1
 p    1 1.00
         0.21037699698                   1
 d    1 1.00
                  0.65                   1

7 0
 s    5 1.00
          10449.827566  0.0054265953789407
          1571.7365221   0.040626378128836
          357.12065523    0.18359747852877
          100.25185935    0.47438948768198
          30.812727554    0.43735181104122
 s    3 1.00
          51.923789434  -0.092754154848099
          5.7045760975    0.56380825544207
          2.3508376809    0.50367044629712
 s    1 1.00
         0.44605124672                   1
 s    1 1.00
          0.1684885619                   1
 p    5 1.00
          307.66790569  -0.0088797025588865
          72.102015515  -0.064284071721237
          22.532680262   -0.24288739736006
          7.8991765444   -0.48340836369878
          2.8767268321   -0.38952563875509
 p    1 1.00
         0.77459363955                   1
 p    1 1.00
         0.21037699698                   1
 d    1 1.00
                  0.65                   1

8 0
 s    5 1.00
          10449.827566  0.0054265953789407
          1571.7365221   0.040626378128836
          357.12065523    0.18359747852877
          100.25185935    0.47438948768198
          30.812727554    0.43735181104122
 s    3 1.00
          51.923789434  -0.092754154848099
          5.7045760975    0.56380825544207
          2.3508376809    0.50367044629712
 s    1 1.00
         0.44605124672                   1
 s    1 1.00
          0.1684885619                   1
 p    5 1.00
          307.66790569  -0.0088797025588865
          72.102015515  -0.064284071721237
          22.532680262   -0.24288739736006
          7.8991765444   -0.48340836369878
          2.8767268321   -0.38952563875509
 p    1 1.00
         0.77459363955                   1
 p    1 1.00
         0.21037699698                   1
 d    1 1.00
                  0.65                   1

9 0
 s    5 1.00
          10449.827566  0.0054265953789407
          1571.7365221   0.040626378128836
          357.12065523    0.18359747852877
          100.25185935    0.47438948768198
          30.812727554    0.43735181104122
 s    3 1.00
          51.923789434  -0.092754154848099
          5.7045760975    0.56380825544207
          2.3508376809    0.50367044629712
 s    1 1.00
         0.44605124672                   1
 s    1 1.00
          0.1684885619                   1
 p    5 1.00
          307.66790569  -0.0088797025588865
          72.102015515  -0.064284071721237
          22.532680262   -0.24288739736006
          7.8991765444   -0.48340836369878
          2.8767268321   -0.38952563875509
 p    1 1.00
         0.77459363955                   1
 p    1 1.00
         0.21037699698                   1
 d    1 1.00
                  0.65                   1

[5d]
[7f]
[9g]

[MO]
 Sym= A
 Ene=               0
 Spin= Alpha
 Occup=    1.00000
   1     0.021732330638211
   2    -0.057230391827723
   3      0.32239039821723
   4      0.27823531491998
   5    -0.087287826646238
   6    0.0040115429338705
   7    -0.00070296005644163
   8    -0.00044962621001853
   9    -0.014064484213533
  10    0.0021498214484059
  11    0.00064417854070154
  12     0.061113850509106
  13    0.0026919265055877
  14     0.022083067695129
  15     0.012225686487475
  16    -0.016112276929745
  17    -0.024764910454252
  18    -0.018207460108133
  19    0.00019190050069805
  20     0.012602301148426
  21    -0.017380006509749
  22    -0.017146658967766
  23    -0.021916738098431
  24    0.00029253253105579
  25    0.0019955909510275
  26    0.0012793706865281
  27    -0.0028312447645206
  28    -0.0011713833677133
  29    0.00037059274547256
  30    -0.0021732779466858
  31    -0.00090635925862244
  32     0.053227595630776
  33     0.088901292629809
  34     0.074547868286839
  35     0.054229325997025
  36    0.0018357742435377
  37      0.02111318495026
  38     0.060769477023092
  39    0.00032471629815845
  40     0.022051585726583
  41    -0.0012937019815401
  42    0.0026015357705038
  43    -5.5742318866664e-05
  44    0.0039419753331578
  45    6.9758719550212e-05
  46    -0.0011302063249411
  47    0.0025956322070652
  48     -0.01846083940132
  49    0.0014659121161525
  50     0.018423700860863
  51    -0.0038359275651867
  52    -0.00027310529057562
  53    0.0020686462566716
  54     0.011834022669304
  55    0.00087762432527467
  56    -0.0064632464216538
  57     0.015191837514731
  58    -0.0019669992602313
  59    -0.0013963607347076
  60    0.0018318628786423
  61    0.0056017981032954
  62    0.0048971555470105
  63    -0.0067419236210017
  64    0.0019072120225976
  65    0.00094816900091151
  66    -0.00023255501997422
  67     0.002470469161126
  68    -0.0015799197448593
  69    0.0012849919110823
  70    -2.9370431902221e-05
  71    -8.3887677137507e-05
  72    6.7167695045703e-05
  73    6.3257725633997e-05
  74    -9.2104938856106e-05
  75    0.00011025736946547
  76    -3.9684178223211e-05
  77     0.014794060906147
  78     -0.10250929293202
  79      0.20273546586336
  80      0.11640544361728
  81    -0.010130963019316
  82     0.035823230356015
  83    -0.063520857031272
  84    -0.020153305733625
  85     0.075196403382901
  86     -0.13453974627675
  87    -0.032321602473486
  88      0.10057722873891
  89     -0.17862988359239
  90     0.012094301489063
  91    0.0022050281121939
  92    -0.014770172668884
  93    -0.0044409828135384
  94    -0.0013702903567287
  95     0.012473844277565
  96    -0.086298284018809
  97      0.17681523731786
  98      0.10002930101097
  99    -0.035772364492708
 100     0.025479286317274
 101     0.039721916106756
 102    -0.073744391025499
 103     0.055032136514665
 104     0.083685329847661
 105     -0.10326124992796
 106     0.067584951233653
 107      0.10742860224916
 108    0.0044764804185016
 109    -0.011834939721865
 110    0.0092600343611884
 111    0.0010900577954344
 112    -0.0073363646367592
 113     0.013479563738853
 114    -0.093205986720744
 115      0.18520823330116
 116      0.10651598599103
 117    -0.024239431791194
 118    -0.060751405443957
 119     0.016329944829879
 120    -0.049229464010723
 121     -0.12804334245251
 122     0.032663769368917
 123    -0.071926327736291
 124       -0.168212204037
 125     0.046590867986809
 126    -0.0063851266825168
 127    -0.0026093395000497
 128    -0.0077096990503972
 129    -0.011758451642979
 130    0.0078404214820094
 131    0.00091088324690941
 132    -0.0061224406346018
 133    0.0056913022307425
 134    0.0074224614850488
 135    0.0087963070792177
 136    -0.00092968907472878
 137    -0.0040320640081725
 138     0.015326345533262
 139    -0.0021551779102561
 140    -0.0082583075339565
 141     0.025847818328099
 142    -0.0042344338487675
 143    -0.013429865845451
 144    0.00046741480602224
 145    -0.00096734330363052
 146    0.00077751527610253
 147    -1.2236265925553e-05
 148    -0.00062888304302109
 149    -0.0011924334132857
 150    0.0083346364246313
 151    -0.015201329212786
 152    -0.014499638608859
 153    0.0018251172661273
 154    0.0030532330877353
 155    -0.0070493259859843
 156    0.0019286024571135
 157    0.0064312321359701
 158    -0.014279170515395
 159    0.0031741272031231
 160    0.0098953464693143
 161     -0.02118427024342
 162    -0.00054073157936447
 163    -0.00078244506721076
 164    0.00091926778649173
 165    -0.00015210365342781
 166    0.0005316865777259
 167    0.00011732196197559
 168    -0.00073734388219939
 169    -0.00094469353433341
 170    -0.0038054916388105
 171    0.0064664421042366
 172    -9.7800846837349e-05
 173    -0.002367393596572
 174     0.011319224622598
 175    1.4656272968161e-05
 176    -0.0042807113355275
 177     0.017953540436713
 178    -0.00072475314529255
 179    -0.0062070610122493
 180    5.2413923354397e-05
 181    0.00023987303202564
 182    1.4974330326875e-05
 183    0.00020773662320229
 184    0.00030822070578723
 Sym= A
 Ene=               1
 Spin= Alpha
 Occup=    1.00000
   1    1.9351499160229e-05
   2    -9.5901568242983e-05
   3    8.9635983189361e-05
   4    0.0033696844838277
   5    0.0061516345254385
   6    -0.00022550334088975
   7    0.0020936338295875
   8    0.0082199946317524
   9    0.00065871740572746
  10    -0.0064925312805794
  11    -0.025971458416663
  12    -0.0025221018941505
  13     0.012286428807225
  14      0.01687595213651
  15     -0.39368692586064
  16     -0.60327724607866
  17       0.4129737571606
  18      0.26764729017521
  19    -0.018129406772619
  20     -0.10162658719389
  21     -0.15514720317053
  22       0.1072902860213
  23     0.068525862001779
  24    -0.0036689758534416
  25    0.00035356718092198
  26    -0.0029018993247278
  27    0.00033977442340913
  28    -0.0011268839607422
  29    -3.1676195790771e-05
  30    0.0010396386945525
  31    0.00028971584589981
  32     0.001639023297619
  33    0.0064303957263995
  34    -0.003114284079301
  35    0.0087847072402726
  36     0.010011651983977
  37     -0.11335875217844
  38     0.010143447031142
  39    0.0092178052199493
  40     -0.11251787706682
  41    -0.0012075631128771
  42    0.0027257897090955
  43    0.00033382643812511
  44    -0.00081531025214897
  45    -0.00034688708198749
  46    0.0010606142127835
  47    -0.0031564884971991
  48     0.014167210700931
  49    -0.016659284350133
  50    0.0068392517512199
  51    -0.0049682754685146
  52    0.00041544246043378
  53    -0.0022076432931834
  54      0.01585881241487
  55    -0.0013057777757134
  56    0.0070745969962359
  57    -0.015405182054615
  58    0.0014569395565621
  59    -0.021563170583343
  60    0.0012549273297631
  61    -0.0023126000022861
  62    0.0011689120835665
  63    -0.0012744412866243
  64    0.00061983787282362
  65    0.0026645669883168
  66    -0.0055972481011062
  67    -0.0001853750473489
  68    -0.0014254323032911
  69    0.00092620970954776
  70    0.00012106564010527
  71    0.00089892623448394
  72    4.4619150200596e-05
  73    -0.00025451012036987
  74    -5.5407838217857e-05
  75    -0.00061862267452717
  76    9.4572602241918e-05
  77    0.0042080299550271
  78    -0.027632678420285
  79     0.035866298211687
  80     0.032364841926871
  81     0.008270740025165
  82     0.019158804166099
  83    -0.040217063230914
  84     0.013761223689663
  85     0.032677812266842
  86    -0.069167054679108
  87     0.023152930544526
  88     0.058806868598403
  89     -0.12077157632099
  90    -0.00019242946314193
  91    0.0010838189505726
  92    -0.0010107982714813
  93    -0.00044211659183481
  94    -0.00094723361887305
  95    -0.0038562110731908
  96      0.02526603683706
  97    -0.032390664365517
  98    -0.030370433195879
  99     0.011996214679129
 100    -0.018172326952074
 101    -0.037483315234772
 102     0.020889975051926
 103    -0.031011940437776
 104    -0.063918238495805
 105     0.036784315922334
 106    -0.054803018535382
 107     -0.11020754996096
 108    0.00036898598756611
 109    0.0012244982236683
 110    -0.00027300674707791
 111    -0.0010785997549295
 112    0.0015561100663289
 113    0.00082574194181437
 114    -0.0055055108451082
 115    0.0095743929389965
 116    -0.00077301543393018
 117    -0.0091358504430846
 118    -0.0075413162791356
 119    -0.010329031528951
 120    -0.015485682811498
 121    -0.013247599493157
 122    -0.017343452744536
 123    -0.025284903703296
 124    -0.020063832840375
 125    -0.029684973870402
 126    0.00055248263546979
 127    -0.00065418073278292
 128    -0.0015615830178232
 129    0.00035725051332855
 130    -0.0010446017940146
 131    0.00035967443883401
 132    -0.0024125950546745
 133    0.0035549375804584
 134    0.0064549560184549
 135    0.0017696634174445
 136    -0.0013189745291405
 137    -0.0015375738720937
 138    0.0031980621868236
 139    -0.0020696314690726
 140    -0.0025944457786565
 141    0.0054011497009075
 142    -0.0068636886270369
 143    -0.0076885814667768
 144    6.6504454415145e-05
 145    0.00071901425261287
 146    -6.9012330479005e-05
 147    -0.00026231691434584
 148    0.0004110696391804
 149    -0.00016322697873179
 150    0.0010680349729684
 151    -0.00061495890199677
 152    -0.0075888825046798
 153    -0.0022036173295466
 154    4.137724956384e-05
 155    0.0014570939615074
 156    -0.0038825373768809
 157    -0.00011920027594652
 158     0.002620331683456
 159    -0.0072549283811965
 160    0.0028719232302018
 161    0.0011008180588113
 162    -0.00010183132211945
 163    -0.00034028633394986
 164    0.00014736601814756
 165    0.00022845937674183
 166    3.4183016803591e-05
 167    8.2214538824429e-05
 168    -0.00056743437921836
 169    0.0016694255667631
 170    -0.0024439944528182
 171    0.00039672881723505
 172    0.0003849249284325
 173    0.0017672985187899
 174    0.00061840143294957
 175    0.00083627414674808
 176    0.0029176161758874
 177    0.0017087537807079
 178    -0.00060411852937447
 179    0.0057683187827098
 180    0.0001725585257471
 181    -0.00031955854535106
 182    -0.00010802997782849
 183    2.4925571129403e-05
 184    -0.00021923477830388
 Sym= A
 Ene=               2
 Spin= Alpha
 Occup=    1.00000
   1    -0.00032039135329394
   2    0.0010331964127526
   3    -0.0039268501387745
   4    -0.009322895504253
   5    0.0079010162552114
   6    -0.0067505119364059
   7    -0.0051373340429473
   8    -0.0062848138452141
   9     0.020998378828046
  10     0.016176042802321
  11      0.01955838381524
  12    -0.016034392557251
  13    -0.012395159911614
  14    -0.021755643571101
  15    -0.036706495168984
  16     -0.28683297546384
  17     -0.30786416608637
  18     -0.15460700720462
  19      0.74796920535439
  20    -0.0092932792727648
  21    -0.078516966311516
  22    -0.082559982358554
  23     -0.03855663509729
  24      0.19402543096506
  25    0.00061761336498893
  26    -1.7495614630303e-05
  27    -0.00084979793344978
  28    -0.0014596573406526
  29    0.0013881280548923
  30    -0.00053753540169723
  31    0.0023550513297396
  32     0.010257856628946
  33     0.021039058148863
  34     0.029904112727444
  35     0.050304115005212
  36     0.095763352682676
  37    -0.0069025444847365
  38     0.056245239834258
  39     0.093864731372687
  40    -0.0030520101091429
  41    0.0005455511040563
  42    0.0008688644732338
  43    0.00094514409264301
  44    -0.0010347162277731
  45    -0.0019884044932123
  46    0.00091910234268399
  47    -0.0026919630699412
  48      0.01248682933752
  49    -0.011032303842693
  50    -0.0028345517157285
  51    -0.0034421976446176
  52    0.0029712722596226
  53    0.00096060420428811
  54     0.011156581043818
  55    -0.0094695072779208
  56    -0.0030659652513406
  57    -0.0096579173919049
  58     0.018915869920156
  59    -0.00059747893167133
  60    0.0010320481308036
  61    0.0023528087093258
  62    8.1318129151193e-07
  63    -0.0047131838601358
  64     0.002605631350563
  65    0.00073759810466958
  66    0.00015988093968717
  67    -0.0014870781155785
  68    -0.0018449778538983
  69    0.0059204953622938
  70    -0.00017266226802835
  71    9.9183243664367e-05
  72    -8.6916860745259e-05
  73    0.00034191649596324
  74    -0.00042694111187723
  75    -0.00028726641314528
  76    0.0008339734447363
  77    -0.00078740490960459
  78    0.0052075183403088
  79    -0.0077790650680153
  80    -0.0016675531567976
  81     0.021218414745099
  82    0.0056137638872718
  83    0.0096465777148596
  84     0.035894856169167
  85    0.0093918758496497
  86      0.01690167896136
  87     0.060302027483336
  88     0.016644314618915
  89     0.025590985708791
  90    0.00092759935212429
  91    0.0029103326581979
  92    0.00052735230652686
  93    0.00083711606255995
  94    -0.0008273851956915
  95    0.0023871512970997
  96    -0.015676401259659
  97     0.021384609202921
  98     0.015042873171201
  99    -0.010699096638652
 100    0.0017708422892856
 101     0.025584554349394
 102    -0.018450844233506
 103     0.003449940541728
 104     0.043300420817279
 105    -0.030880401739339
 106    0.0060228521203191
 107      0.07592365408287
 108    -0.00046733732381058
 109    -0.00074862485094601
 110    0.00075520787593565
 111    0.00024248601740693
 112    -0.0007352402698255
 113    -0.0040041873246896
 114      0.02617415510567
 115    -0.033227728916612
 116    -0.031648729448428
 117    0.00087023201762824
 118     0.045576268737506
 119    -0.00090647680717134
 120    0.0019162948158004
 121     0.077420971154706
 122    -0.0013616910290926
 123    0.0042025323567533
 124      0.13477879867447
 125    -0.0046871262081594
 126    -0.00033445875157704
 127     0.001075651165742
 128    0.0023452563697618
 129    -6.3051830256569e-05
 130    -0.0014786231968717
 131    3.1928292873047e-05
 132    -0.00020076454150452
 133    0.0003541760725491
 134    -0.00072973428267193
 135    -0.00047993254262748
 136    -0.001333102240552
 137    0.0002380173017447
 138    -0.00083711180066435
 139    -0.0022070632894184
 140    0.00034650217401642
 141    -0.00086231761046489
 142    -0.0040757403349966
 143    0.0020752623287138
 144    1.7061093270231e-05
 145    -3.7832581203776e-05
 146    -0.00013162738442456
 147    8.852851741609e-05
 148    0.0001943042302953
 149    -1.4387809933158e-05
 150    9.6949344414816e-05
 151    0.00017065191800809
 152    -0.0024066997788969
 153    -0.00085408168250443
 154    -0.00093799822642697
 155    0.00031307051922174
 156    -0.0014077657176788
 157    -0.0015850221095508
 158    0.00074093093847757
 159    -0.0033085353702415
 160    -0.0024149623285107
 161    -0.0016242942833456
 162    -8.0451174931893e-06
 163    -0.00020016286609193
 164    6.9538199151314e-05
 165    -9.600359668672e-05
 166    0.00029205684669826
 167    0.00053380838366859
 168    -0.003550206982253
 169    0.0054091388756241
 170    0.0069170049305878
 171    0.0044239381508815
 172    0.0020921425860573
 173    6.0718498018266e-06
 174    0.0079280409098896
 175    0.0036049309956791
 176    -0.0001789623975526
 177     0.012136620144148
 178     0.008531186145703
 179    0.0018171545268151
 180    0.0004506204657433
 181    0.00010585119343813
 182    0.00025117172191204
 183    -0.00072347348327418
 184    -0.00086378603858118
 Sym= A
 Ene=               3
 Spin= Alpha
 Occup=    1.00000
   1    0.00097544154766409
   2    -0.0028523105012553
   3     0.013188586687335
   4    -0.032258437769175
   5     0.016178818317911
   6    -0.0052347389269547
   7    0.0018944749449191
   8    -0.0061231657611762
   9     0.016292701133091
  10    -0.0061779465368535
  11     0.019007221987411
  12     -0.01456520215287
  13    0.00021176921109802
  14    -0.020016846624387
  15      0.23790872470211
  16     -0.44309344096561
  17     -0.58247537924034
  18      0.23015189145884
  19     -0.34804684045161
  20     0.062617296614355
  21     -0.11932954255075
  22     -0.15651895447025
  23     0.062210999411379
  24     -0.08899214497595
  25    0.0011997252091984
  26    -0.00075942490903086
  27    -0.00055165077741559
  28    -0.00056239187357772
  29    -0.0019152362738489
  30    -2.0485992489265e-05
  31    -0.0014195562949171
  32    0.0071502555340215
  33     0.015294810394473
  34     0.018815773501085
  35     0.033591426368804
  36    -0.074490486191905
  37    -0.028005024396674
  38     0.037891588606601
  39    -0.072621824544706
  40    -0.025466412419069
  41    0.00029780822428081
  42    0.0010472475766306
  43    -0.0012559362138998
  44    -0.00051442342016512
  45    0.0017268285563611
  46    0.00084330881270291
  47    -0.0024760740510567
  48     0.011423037773878
  49    -0.011415853557795
  50    -0.0034648171740576
  51    -0.0032027678285486
  52    -0.002246069970712
  53    0.00035315601597142
  54     0.010327689840239
  55    0.0071568336229613
  56    -0.0011169541712642
  57    -0.0087160293123041
  58    -0.014471725178167
  59    -0.0041853839184442
  60    0.0025487006355826
  61    0.00099152487752983
  62    0.00043540871494462
  63    -0.0030783888828106
  64    -0.0019055194480546
  65    0.0013076616162199
  66    -0.0008913832013323
  67    0.0011706244677996
  68    -0.00081931450133189
  69    -0.0048590570645116
  70    -0.00010138509633115
  71    0.00022050767830576
  72    0.00015408965798136
  73    9.7078869415037e-05
  74    0.0003523192217629
  75    -0.00031124208213111
  76    -0.00063733216200242
  77    -0.0025350789016734
  78     0.016595927612868
  79    -0.020118665794037
  80    -0.019410475231816
  81     0.012420506268305
  82    -0.0097218455475789
  83     0.023668255332148
  84     0.021215297756584
  85    -0.016797540622035
  86     0.040609767462973
  87     0.035094074901619
  88    -0.028909188279903
  89     0.070193853885004
  90    -6.7282786190877e-05
  91    0.00098872495619075
  92    0.00018838808789431
  93    0.0010535192436585
  94    -0.0012817480989879
  95    -0.0012330790248242
  96    0.0080742242850568
  97    -0.0094756249616636
  98    -0.012725166068066
  99    -0.0032767980331407
 100    -0.023517391292596
 101    -0.0060001220387349
 102    -0.0052950004188055
 103    -0.040093872207101
 104    -0.010435524740114
 105    -0.0068692342668308
 106    -0.066764106142307
 107     -0.01834681029151
 108    -0.00041082232119314
 109     0.001381951133402
 110    0.00088846922233248
 111    -0.0019969578505941
 112    -0.0010435494081251
 113    0.0013408325016449
 114    -0.0087503369232238
 115     0.011641512367858
 116     0.010605585464641
 117    0.0013791905242366
 118    -0.0090154550669318
 119     0.029040855162446
 120     0.002221908737874
 121    -0.015115949733549
 122      0.04864684509407
 123    0.0037262163291672
 124      -0.0287266500217
 125     0.083633545776768
 126    -0.0014072169764311
 127    0.00058961028883183
 128    0.0014381473430857
 129    -0.0010875016929639
 130    0.0014292214669477
 131    0.00030601350299201
 132    -0.0020233171964516
 133    0.0026199696582137
 134    0.0059606698845103
 135    0.0018642831612865
 136    -7.6160658095509e-05
 137    -0.0017809540962323
 138    0.0034251530620414
 139    -0.00015558168718596
 140    -0.0029266985496667
 141    0.0047267644942745
 142    -0.0010823353856692
 143    -0.0079392370144715
 144    3.0329777333352e-06
 145    0.00055560350614491
 146    4.4224752475418e-05
 147    -0.00027174570706012
 148    0.00017491914913273
 149    0.00020101006662201
 150    -0.0013301895237493
 151    0.0020624701081256
 152    0.0021237270737436
 153    0.0017466342994981
 154    0.0002616181359362
 155    0.00084508719312936
 156    0.0031571569435911
 157    0.00027457202608345
 158    0.0013878024867212
 159    0.0047560637474294
 160    0.0017748604859471
 161    0.0030836217169983
 162    0.00028264560598356
 163    -0.00019238394171718
 164    2.9951091184768e-05
 165    -0.00031016550115289
 166    8.9487090639022e-05
 167    -0.00017782772184936
 168     0.001199384470036
 169    -0.0019667505030434
 170    -0.0027483807738259
 171    -0.0023881165578271
 172    -0.0003359364154217
 173    0.0006734060402425
 174    -0.0042775520318577
 175    -0.00050740632765754
 176    0.0012292558253975
 177    -0.0061454366119709
 178    -0.0031759965206197
 179    0.00092078492050103
 180    -4.5519516686136e-05
 181    -0.00017105077747767
 182    -0.00014559353813905
 183    0.00047130691800335