[Molden Format]
made by pyscf v[2.1.1]
[Atoms] (AU)
Fe   1   26     3.17068844873907     0.00098706064664     0.12237737881307
O   2   8     0.00000000000000     0.00000000000000    -0.89004350580623
Fe   3   26    -3.17068844873907    -0.00098706064664     0.12237737881307
Cl   4   17     3.53383895113107    -2.07485195383062     3.76228752659000
Cl   5   17     5.54152580550813    -1.85590924879884    -2.78672786652360
Cl   6   17     4.48169216485503     3.92976278472880    -0.95330240907949
Cl   7   17    -3.53383895113107     2.07485195383062     3.76228752659000
Cl   8   17    -5.54152580550813     1.85590924879884    -2.78672786652360
Cl   9   17    -4.48169216485503    -3.92976278472880    -0.95330240907949
[GTO]
1 0
 s    6 1.00
          60923.640643  0.0017552243692958
          9147.8893982   0.013449023284001
          2081.3505927   0.066678874640978
          587.55977067    0.23176348548844
           191.0904399    0.46945550248188
          65.732730112     0.3596824938678
 s    3 1.00
          127.25891928   -0.10723431835929
           14.83091301    0.62971616328466
          6.0653307408    0.44472317896179
 s    3 1.00
           10.44994371   -0.21694289195548
          1.7245228003    0.69457867408393
         0.71772177325    0.43298308896347
 s    1 1.00
        0.091449828308                   1
 s    1 1.00
        0.033706691021                   1
 p    5 1.00
          773.43750995  0.0091440529992506
          182.15149714   0.067887577136571
          57.547272758    0.26167978878504
          20.614988935    0.51088040113251
           7.634855789    0.33235475570224
 p    3 1.00
           3.871932799    0.33193859098144
          1.4924724132     0.5553666555499
         0.56061284958    0.23106034201617
 p    1 1.00
              0.134915                   1
 d    4 1.00
          38.968133419   0.033335938558743
          10.800067078    0.17766212505983
          3.6136457999      0.441281781625
          1.2129967888    0.57089200490673
 d    1 1.00
          0.3652439317                   1
 f    1 1.00
                 1.598                   1

2 0
 s    5 1.00
          2266.1767785  -0.0053893503921743
          340.87010191   -0.04023472138896
          77.363135167   -0.18008184205526
           21.47964494   -0.46828857657651
          6.6589433124   -0.44692617160187
 s    1 1.00
         0.80975975668                   1
 s    1 1.00
         0.25530772234                   1
 p    3 1.00
          17.721504317   0.062630248763161
           3.863550544    0.33331138482352
          1.0480920883    0.74148638308122
 p    1 1.00
         0.27641544411                   1
 d    1 1.00
                   1.2                   1

3 0
 s    6 1.00
          60923.640643  0.0017552243692958
          9147.8893982   0.013449023284001
          2081.3505927   0.066678874640978
          587.55977067    0.23176348548844
           191.0904399    0.46945550248188
          65.732730112     0.3596824938678
 s    3 1.00
          127.25891928   -0.10723431835929
           14.83091301    0.62971616328466
          6.0653307408    0.44472317896179
 s    3 1.00
           10.44994371   -0.21694289195548
          1.7245228003    0.69457867408393
         0.71772177325    0.43298308896347
 s    1 1.00
        0.091449828308                   1
 s    1 1.00
        0.033706691021                   1
 p    5 1.00
          773.43750995  0.0091440529992506
          182.15149714   0.067887577136571
          57.547272758    0.26167978878504
          20.614988935    0.51088040113251
           7.634855789    0.33235475570224
 p    3 1.00
           3.871932799    0.33193859098144
          1.4924724132     0.5553666555499
         0.56061284958    0.23106034201617
 p    1 1.00
              0.134915                   1
 d    4 1.00
          38.968133419   0.033335938558743
          10.800067078    0.17766212505983
          3.6136457999      0.441281781625
          1.2129967888    0.57089200490673
 d    1 1.00
          0.3652439317                   1
 f    1 1.00
                 1.598                   1

4 0
 s    5 1.00
          10449.827566  0.0054265953789407
          1571.7365221   0.040626378128836
          357.12065523    0.18359747852877
          100.25185935    0.47438948768198
          30.812727554    0.43735181104122
 s    3 1.00
          51.923789434  -0.092754154848099
          5.7045760975    0.56380825544207
          2.3508376809    0.50367044629712
 s    1 1.00
         0.44605124672                   1
 s    1 1.00
          0.1684885619                   1
 p    5 1.00
          307.66790569  -0.0088797025588865
          72.102015515  -0.064284071721237
          22.532680262   -0.24288739736006
          7.8991765444   -0.48340836369878
          2.8767268321   -0.38952563875509
 p    1 1.00
         0.77459363955                   1
 p    1 1.00
         0.21037699698                   1
 d    1 1.00
                  0.65                   1

5 0
 s    5 1.00
          10449.827566  0.0054265953789407
          1571.7365221   0.040626378128836
          357.12065523    0.18359747852877
          100.25185935    0.47438948768198
          30.812727554    0.43735181104122
 s    3 1.00
          51.923789434  -0.092754154848099
          5.7045760975    0.56380825544207
          2.3508376809    0.50367044629712
 s    1 1.00
         0.44605124672                   1
 s    1 1.00
          0.1684885619                   1
 p    5 1.00
          307.66790569  -0.0088797025588865
          72.102015515  -0.064284071721237
          22.532680262   -0.24288739736006
          7.8991765444   -0.48340836369878
          2.8767268321   -0.38952563875509
 p    1 1.00
         0.77459363955                   1
 p    1 1.00
         0.21037699698                   1
 d    1 1.00
                  0.65                   1

6 0
 s    5 1.00
          10449.827566  0.0054265953789407
          1571.7365221   0.040626378128836
          357.12065523    0.18359747852877
          100.25185935    0.47438948768198
          30.812727554    0.43735181104122
 s    3 1.00
          51.923789434  -0.092754154848099
          5.7045760975    0.56380825544207
          2.3508376809    0.50367044629712
 s    1 1.00
         0.44605124672                   1
 s    1 1.00
          0.1684885619                   1
 p    5 1.00
          307.66790569  -0.0088797025588865
          72.102015515  -0.064284071721237
          22.532680262   -0.24288739736006
          7.8991765444   -0.48340836369878
          2.8767268321   -0.38952563875509
 p    1 1.00
         0.77459363955                   1
 p    1 1.00
         0.21037699698                   1
 d    1 1.00
                  0.65                   1

7 0
 s    5 1.00
          10449.827566  0.0054265953789407
          1571.7365221   0.040626378128836
          357.12065523    0.18359747852877
          100.25185935    0.47438948768198
          30.812727554    0.43735181104122
 s    3 1.00
          51.923789434  -0.092754154848099
          5.7045760975    0.56380825544207
          2.3508376809    0.50367044629712
 s    1 1.00
         0.44605124672                   1
 s    1 1.00
          0.1684885619                   1
 p    5 1.00
          307.66790569  -0.0088797025588865
          72.102015515  -0.064284071721237
          22.532680262   -0.24288739736006
          7.8991765444   -0.48340836369878
          2.8767268321   -0.38952563875509
 p    1 1.00
         0.77459363955                   1
 p    1 1.00
         0.21037699698                   1
 d    1 1.00
                  0.65                   1

8 0
 s    5 1.00
          10449.827566  0.0054265953789407
          1571.7365221   0.040626378128836
          357.12065523    0.18359747852877
          100.25185935    0.47438948768198
          30.812727554    0.43735181104122
 s    3 1.00
          51.923789434  -0.092754154848099
          5.7045760975    0.56380825544207
          2.3508376809    0.50367044629712
 s    1 1.00
         0.44605124672                   1
 s    1 1.00
          0.1684885619                   1
 p    5 1.00
          307.66790569  -0.0088797025588865
          72.102015515  -0.064284071721237
          22.532680262   -0.24288739736006
          7.8991765444   -0.48340836369878
          2.8767268321   -0.38952563875509
 p    1 1.00
         0.77459363955                   1
 p    1 1.00
         0.21037699698                   1
 d    1 1.00
                  0.65                   1

9 0
 s    5 1.00
          10449.827566  0.0054265953789407
          1571.7365221   0.040626378128836
          357.12065523    0.18359747852877
          100.25185935    0.47438948768198
          30.812727554    0.43735181104122
 s    3 1.00
          51.923789434  -0.092754154848099
          5.7045760975    0.56380825544207
          2.3508376809    0.50367044629712
 s    1 1.00
         0.44605124672                   1
 s    1 1.00
          0.1684885619                   1
 p    5 1.00
          307.66790569  -0.0088797025588865
          72.102015515  -0.064284071721237
          22.532680262   -0.24288739736006
          7.8991765444   -0.48340836369878
          2.8767268321   -0.38952563875509
 p    1 1.00
         0.77459363955                   1
 p    1 1.00
         0.21037699698                   1
 d    1 1.00
                  0.65                   1

[5d]
[7f]
[9g]

[MO]
 Sym= A
 Ene=               0
 Spin= Alpha
 Occup=    1.00000
   1     0.010307637181307
   2    -0.028847559075482
   3      0.14654221080385
   4     -0.10179220290497
   5       0.0265999654934
   6     0.025173537799461
   7    -0.0007395386035282
   8    0.00060037167636481
   9    -0.085719352151063
  10    0.0023188870207396
  11    -0.0030126003101092
  12      0.09929642833979
  13    -0.00054023756555274
  14    -0.041107125893095
  15      0.10022279106851
  16    -0.036345753547429
  17    -0.022273459582169
  18     -0.16416353100759
  19    0.0073815128842844
  20     0.052549469585764
  21    -0.0024952287245842
  22    -0.0078913626688339
  23    -0.078552994940166
  24    0.0033850366504622
  25    -0.001225672133095
  26    -0.0035861732938969
  27    -0.00062455982252427
  28    0.0017872125107462
  29    -0.00018894365353211
  30    0.0047040245763099
  31    -0.00028915831083597
  32     0.025594268787041
  33    0.0035910126643099
  34    0.0051683619973968
  35     -0.37501328336341
  36    -0.024772162115948
  37     -0.38191210615453
  38     -0.30837994691436
  39    -0.020864730875554
  40     -0.32891550345911
  41    -0.0082327355977217
  42    -0.0099812662530378
  43    -0.00058262241910545
  44    -0.0013321180525773
  45    -4.5709194605646e-05
  46    -0.0036723811672254
  47     0.010337812224598
  48    -0.052072034914974
  49     0.039286749994695
  50     0.014320191902981
  51    0.0084770935198111
  52    -7.0977750683446e-05
  53    -0.011162775364807
  54     -0.02924528586437
  55    0.00029942405556322
  56     0.036778383457614
  57      0.02014747820709
  58    -0.0034670380405777
  59    -0.063032929547391
  60     0.017802342102468
  61    -0.099124337105411
  62     0.010482036990314
  63     0.026078484009739
  64    -2.2536334040879e-05
  65     0.012997678484005
  66    -0.059195777662607
  67    0.0051443145382852
  68    0.0094647414796377
  69    -0.00034414422561302
  70     0.002554186477626
  71    0.0015804599466311
  72    4.6622180188501e-05
  73    -0.0039588856359978
  74    -0.00016582316754954
  75    0.0012393955870385
  76    -0.00034478518213881
  77    0.0039609510272984
  78     -0.02703858528413
  79     0.047779586062578
  80     0.037971651131105
  81    -0.0051310019247822
  82     0.011966335489294
  83     -0.01921715233871
  84    -0.0092889393824622
  85     0.022552456096137
  86     -0.03768254571026
  87    -0.017713109341151
  88     0.041884547337412
  89    -0.062534560650199
  90    0.0022268011837761
  91    -0.0019615860654737
  92    -0.0022849923108578
  93    -0.0023745616588545
  94    0.0010166863256552
  95    0.00064395938788151
  96    -0.0041211304854039
  97     0.014609310664718
  98    -0.017713241319336
  99    -0.0036061922283916
 100    0.0023912251115912
 101    0.0041389081240719
 102    -0.0054405850010321
 103    0.0045745942279693
 104    0.0068060132178028
 105    -0.0044226315953453
 106    -0.0041985366125672
 107    -0.00089193966458161
 108    -0.0007911272642889
 109    0.00092027297944788
 110    -0.0015074992360294
 111    -4.3361068306309e-05
 112    0.00032660984404874
 113    0.0022896749869332
 114    -0.015524489498998
 115     0.031857983730715
 116    0.0057359648395538
 117    -0.0074278205733537
 118     -0.01239732054644
 119    0.0042498608138723
 120    -0.013024016040418
 121    -0.024370089777501
 122    0.0073313353703345
 123    -0.024932232446119
 124    -0.026482099913259
 125     0.013196460274597
 126    0.00080082329195923
 127    0.00024897338632769
 128    -0.00018586837708763
 129    -0.00098420125273512
 130    -0.00041339756697697
 131     0.001575571624326
 132    -0.011113898106004
 133     0.020784095816881
 134      0.01042660764392
 135    0.0018237011907378
 136    -0.0050999515848868
 137    -0.0049883051231033
 138    0.0039494650747942
 139    -0.010252007612678
 140    -0.011672762770022
 141    0.0013693240458726
 142    -0.020999687628779
 143    -0.020398425630544
 144    0.0017220710869506
 145    0.0016889861570665
 146    0.0020707677750342
 147    -0.0017873153820606
 148    0.0012349312530334
 149    -0.0025727129355546
 150     0.017524577284273
 151    -0.027794585170973
 152    -0.030698198455818
 153    -0.0098426624766014
 154    0.0070090359361732
 155    -0.0079359105748522
 156     -0.01922267988974
 157     0.013773582851012
 158    -0.016511277941153
 159    -0.031083049522415
 160     0.024793291365337
 161    -0.026688131619025
 162    -0.002335692322408
 163    -0.00099425814714414
 164    0.0017294765386071
 165    0.0027805299827259
 166    -0.00056690305973493
 167    -0.0010585260116696
 168    0.0069360899691938
 169    -0.0087744671229893
 170    -0.019020565862731
 171    -0.0030074615592611
 172    -0.0064399859996708
 173    0.0018975184222389
 174    -0.005180403597315
 175    -0.011283221790376
 176    0.0031121277011511
 177    -0.010086965328484
 178    -0.022807605554848
 179    0.0066751190958317
 180    -0.00051554035233401
 181    -0.0011704044798941
 182    -0.00073332389034137
 183    0.0014975819061117
 184    0.0023165632693162
 Sym= A
 Ene=               1
 Spin= Alpha
 Occup=    1.00000
   1    0.00010272461105297
   2    -0.00034177346052352
   3    0.0012250662075823
   4    0.0013096492654383
   5    0.0061006417487199
   6    0.00011678573999181
   7    0.0020721970822765
   8    0.0084217325597962
   9    -0.00049548513561791
  10    -0.0064224029440905
  11    -0.026633221578425
  12    -0.0015667083615617
  13     0.012108756212196
  14     0.017469071935091
  15     -0.39329354114394
  16     -0.60491546166778
  17      0.41304572482011
  18      0.26620181442413
  19    -0.017920615305035
  20     -0.10156351127056
  21     -0.15601151144671
  22      0.10726024503846
  23     0.067919118440099
  24    -0.0034958458026774
  25    0.00030220062117664
  26    -0.0029016257557279
  27    0.00034303677027119
  28    -0.0010512120271152
  29    -3.4590997911389e-05
  30    0.0010920616508768
  31    0.00027863223102459
  32    0.0017664074273168
  33    0.0081198785585943
  34    -0.0016387122417904
  35    -0.00070096396082708
  36    0.0086617126569873
  37     -0.11013141373265
  38     0.002027462888386
  39    0.0080801274754937
  40     -0.10962207338079
  41    -0.0011219127680395
  42    0.0025214832305335
  43    0.00030401057909288
  44    -0.00084039895421547
  45    -0.00034868268232548
  46    0.00089554391511422
  47    -0.0026793263127248
  48     0.011888889634179
  49    -0.014991068091649
  50    0.0066292415088561
  51    -0.0041972292219014
  52    0.00039054111407801
  53    -0.0023514799390322
  54     0.013351005590609
  55    -0.0012257615133535
  56    0.0075468317024717
  57    -0.013079286286946
  58    0.0013202670886917
  59    -0.021397848618561
  60    0.0040649523804884
  61    0.0022724248746763
  62    1.8143212466229e-05
  63    -0.0075465853556732
  64    0.00030471409701206
  65     0.003650070670273
  66    -0.0036703933383116
  67    -0.00063521796303762
  68    -0.0036577378905493
  69    0.00081120411004074
  70    0.0001809744643997
  71    0.0008488659251864
  72    2.8986515424203e-05
  73    -0.00034730669727656
  74    -5.2690701397613e-05
  75    -0.00050782988059393
  76    8.0338332987151e-05
  77    0.0041770900849391
  78    -0.027411946887501
  79      0.03537528528833
  80     0.032282739264899
  81    0.0083142654172855
  82     0.019096115721499
  83    -0.040118180265166
  84     0.013849948785742
  85     0.032528803755335
  86    -0.068922318080288
  87     0.023190579787435
  88     0.058606848257626
  89     -0.12047936387024
  90    -0.00023357981423304
  91    0.0010893263915917
  92    -0.00096213115294868
  93    -0.0004199287683222
  94    -0.00095204504913413
  95    -0.003844288557914
  96     0.025190847008523
  97    -0.032323570007403
  98    -0.030262668075281
  99     0.011881340199357
 100    -0.018119625265392
 101    -0.037458975426988
 102     0.020690103325629
 103    -0.030921501470092
 104    -0.063877257545616
 105     0.036476013310246
 106    -0.054651928066879
 107     -0.11016485295666
 108    0.00038811075225689
 109    0.0012526969605832
 110    -0.00028432131462967
 111    -0.0011289104738324
 112    0.0015927100788079
 113    0.0008304011957995
 114    -0.0055284296667665
 115    0.0095170968789113
 116    -0.00059254202071756
 117    -0.0092051446639912
 118    -0.0075947558211076
 119    -0.010364916859996
 120    -0.015593514783142
 121    -0.013310710765706
 122    -0.017415352966747
 123    -0.025525392725375
 124    -0.020257898053669
 125     -0.02977764697334
 126    0.00058737926438234
 127    -0.00066457520324788
 128    -0.0015607405736419
 129    0.00035043524730727
 130    -0.0011138756666679
 131    0.00030754996315104
 132    -0.0020659185712986
 133    0.0030513349999392
 134    0.0059229112367723
 135    0.0013527170691112
 136    -0.0011424490381003
 137    -0.0012000407521709
 138    0.0024865931482197
 139    -0.001760565653841
 140    -0.0019888385476571
 141    0.0041269884912844
 142    -0.006268226205209
 143    -0.0066376594108384
 144     5.85694227256e-05
 145    0.00067009184087314
 146    -8.4493570214083e-05
 147    -0.00024918634768392
 148    0.0003813674280363
 149    -0.00020369955298278
 150    0.0013326711763128
 151    -0.0010650466175304
 152    -0.0075416560046798
 153    -0.0027431420804625
 154    0.00014573859709467
 155    0.0013738509025116
 156    -0.0047986932873358
 157    7.2051736690485e-05
 158    0.0024710873203953
 159    -0.0087291549070333
 160    0.0030346753489026
 161    0.0010382644437813
 162    -0.00012536743301309
 163    -0.00031126819910286
 164    0.00014851358022526
 165    0.00026444395057571
 166    1.0714992530408e-05
 167    2.1448028881343e-05
 168    -0.00016485037571473
 169    0.0010401063347022
 170    -0.0027922797118359
 171    -5.4932520336401e-05
 172    -7.5634852903248e-06
 173    0.0016963822678145
 174    -0.0001507436675873
 175    0.00012957078910548
 176     0.002799414975601
 177    0.00033887787802412
 178    -0.0016548069813342
 179    0.0055356705303392
 180    0.0001523356180767
 181    -0.00031509918884986
 182    -0.00012832866555968
 183    6.321713906413e-05
 184    -0.00016670497688765
 Sym= A
 Ene=               2
 Spin= Alpha
 Occup=    1.00000
   1    -0.00031916638388038
   2    0.0010321365763259
   3    -0.0039002695562137
   4    -0.0087250104132345
   5    0.0075027965825386
   6    -0.0068145098688571
   7    -0.0052437485442643
   8    -0.0061614884986411
   9     0.021209807234153
  10     0.016523107987043
  11     0.019157801448511
  12    -0.016386318268116
  13     -0.01324716231064
  14    -0.020700773242974
  15    -0.037511777142243
  16     -0.28759661720957
  17     -0.30743816873736
  18     -0.15406041995652
  19      0.74898543025724
  20    -0.0098441200642544
  21    -0.079150673853854
  22    -0.082417776923472
  23    -0.038246159515697
  24      0.19473001147735
  25    0.00059850068001497
  26    2.2882587546404e-05
  27    -0.00084160375870255
  28    -0.0014251578915468
  29    0.0013713263563016
  30    -0.0005563779510747
  31    0.0023133418445407
  32     0.010337610598856
  33     0.020550360365104
  34     0.029439711265828
  35     0.048655465165195
  36     0.090438407465526
  37    2.9596384128544e-05
  38     0.054997858591478
  39     0.089271301636363
  40      0.00282208124846
  41    0.00069597022996431
  42    0.0008477120204099
  43    0.00083601059731122
  44    -0.0010319467248771
  45    -0.0019881909456395
  46    0.00086114246810796
  47    -0.002526209451685
  48     0.011678824949793
  49    -0.010324923454923
  50    -0.003254202461594
  51    -0.0032168714671369
  52    0.0028482215086224
  53    0.0010095191762114
  54     0.010410896129555
  55    -0.0090721070950164
  56    -0.003221305511868
  57    -0.0087735929749657
  58     0.018103835340931
  59    0.00023146286570142
  60     0.002794607142037
  61    0.0012994485359682
  62    -6.5768909100507e-05
  63    -0.0050714078563743
  64    0.0018099761135619
  65    0.0015494847409048
  66    2.8993527436471e-05
  67    -0.0015009589672322
  68    -0.0023955240931745
  69    0.0053179861506235
  70    -0.00017476253266271
  71    3.936850452281e-05
  72    -8.7245540661968e-05
  73    0.00034973462773572
  74    -0.00040178263247448
  75    -0.00024437235443415
  76    0.00079473775551756
  77    -0.00082261677506815
  78    0.0054500803839551
  79    -0.0081679545678946
  80    -0.0020941093516968
  81     0.021288115913582
  82    0.0055388609133811
  83    0.0098121864194117
  84     0.036030982896284
  85    0.0092418369950727
  86     0.017225520747577
  87      0.06044889783554
  88     0.016291133892945
  89     0.026303053243297
  90    0.00089940717395979
  91    0.0029664909206776
  92    0.00055878232408843
  93    0.00087678273821358
  94    -0.00084829423380948
  95    0.0024093257459706
  96     -0.01582856266358
  97     0.021616838231032
  98      0.01541511417035
  99    -0.010772179772162
 100    0.0018548932137646
 101     0.025620007349772
 102    -0.018599529182742
 103    0.0036027536573223
 104     0.043393239348618
 105    -0.031126543348044
 106    0.0064004225256087
 107     0.076057494959482
 108    -0.00045701210237058
 109    -0.00076995286827339
 110    0.00078512692044881
 111    0.00022201778255982
 112    -0.00073227784953137
 113    -0.0039676772701556
 114     0.025927374598368
 115    -0.032869322594071
 116    -0.031062057511364
 117    0.00077962452749408
 118     0.045416074867167
 119    -0.00089685088411362
 120    0.0017380570193248
 121      0.07711925349202
 122    -0.0013372088751945
 123     0.003952910191759
 124      0.13408894566405
 125    -0.0046175143200687
 126    -0.00033134845440389
 127    0.0010541132777899
 128    0.0023041487645741
 129    -0.00013277173344595
 130    -0.0015147234720525
 131    -1.3417010431997e-05
 132    0.00010778707693744
 133    -0.00015783399220993
 134    -0.0010481220322917
 135    -0.00053569739432662
 136    -0.0010772984675486
 137    0.00047503971826799
 138    -0.00093816303040197
 139    -0.0017552211883584
 140    0.0008050576042011
 141    -0.0010504929762207
 142    -0.0032037472813136
 143    0.0028043429292003
 144    -4.0271714515651e-06
 145    -4.7650993406747e-05
 146    -0.00014853758421395
 147    0.00010758073191689
 148    0.00017475715620906
 149    2.4479644539672e-05
 150    -0.00016978704346484
 151    0.00052042405789254
 152    -0.0016946642782607
 153    -0.00084098747543715
 154    -0.0010223615940424
 155    0.00055118483876671
 156    -0.0013422638251556
 157    -0.0017574271675363
 158    0.0011912765305291
 159    -0.0031426974679816
 160    -0.0027884993951403
 161    -0.0006997581302662
 162    3.2126816858911e-05
 163    -0.00016414935018489
 164    3.3892063098085e-05
 165    -0.00011334361331834
 166    0.00027349470437733
 167    0.00049886799260861
 168    -0.003311388401008
 169     0.004967226724366
 170    0.0067598813040304
 171    0.0042513742806003
 172    0.0019415883972834
 173    -6.7939345826478e-05
 174    0.0076144335809587
 175    0.0033035240365896
 176    -0.00030579606011867
 177      0.01162370581369
 178    0.0080835830201902
 179    0.0015156732214312
 180    0.00043363305256417
 181    0.00011356043534723
 182    0.00022864112055691
 183    -0.00068284348568197
 184    -0.00084108143200065
 Sym= A
 Ene=               3
 Spin= Alpha
 Occup=    1.00000
   1    0.0009435642354196
   2    -0.0027649438952652
   3     0.012728419043933
   4    -0.032069492761125
   5     0.015817061601494
   6    -0.0053042487686815
   7     0.001982311110596
   8    -0.0060136860584765
   9     0.016528568725297
  10    -0.0064625992789732
  11      0.01865581168607
  12    -0.014994772810576
  13    0.00081773472249093
  14    -0.019187703580045
  15      0.23730323972837
  16     -0.44375359416137
  17     -0.58247074471099
  18      0.23093668480907
  19     -0.34891514604169
  20     0.062169497634565
  21      -0.1198556878904
  22      -0.1565952251261
  23     0.062659426585118
  24     -0.08949992465094
  25    0.0011836400141887
  26    -0.00072064259412005
  27    -0.00055263146701314
  28    -0.00053843059247788
  29    -0.0018970738951995
  30    -3.7369791108281e-05
  31    -0.0013900837402692
  32    0.0070625822683708
  33     0.015369358599069
  34     0.018818606413855
  35     0.032312687038265
  36    -0.070459545157864
  37    -0.022008405723841
  38     0.036845717265171
  39    -0.069150103700384
  40    -0.020346635852011
  41    0.00043087469966607
  42    0.0010316219000931
  43    -0.0011739242302795
  44    -0.00051159431665172
  45    0.0017273909049396
  46    0.0007937065388103
  47    -0.0023333161128872
  48      0.01073580665438
  49    -0.010805129901418
  50    -0.0037458780985364
  51    -0.0029659098677126
  52    -0.0021574475130352
  53    0.00039039046884283
  54    0.0095539636001489
  55    0.0068686524897216
  56    -0.0012384572418374
  57    -0.0078648431498557
  58    -0.013775902437816
  59    -0.0034284291172895
  60    0.0025012446351386
  61    0.0018672322814084
  62    0.00029495763482059
  63    -0.0045978842730783
  64    -0.0011371791726527
  65    0.0014227266898065
  66    -0.00028695335620577
  67    0.0010789706062041
  68    -0.0016425275233407
  69    -0.0043491572426836
  70    -0.00010305358483048
  71    0.00017600805559407
  72    0.00014243035598864
  73    0.00010125720088857
  74    0.0003393953192859
  75    -0.00026941013224165
  76    -0.00060705777805881
  77     -0.00256721981955
  78     0.016819090390918
  79    -0.020555209707325
  80    -0.019587401649343
  81     0.012468720620665
  82    -0.0098466575513175
  83      0.02379486539361
  84     0.021304283301941
  85    -0.017030725546286
  86     0.040882307552126
  87     0.035234323088075
  88    -0.029366849256011
  89     0.070570980989615
  90    -9.0824669866787e-05
  91    0.00099767501121438
  92    0.00021196909402611
  93    0.0010764444867308
  94    -0.0012986063550005
  95    -0.0012049163279038
  96    0.0078810659114085
  97    -0.0092374852629066
  98    -0.012187624792873
  99    -0.0033919435144488
 100    -0.023475573781242
 101    -0.0059193079971944
 102    -0.0055274718136874
 103     -0.04000118128497
 104    -0.010264832670384
 105    -0.007287205132311
 106    -0.066542966294929
 107    -0.017928223372343
 108    -0.00036700290328756
 109     0.001365125664555
 110    0.00091552684510005
 111    -0.0020293937128668
 112    -0.0010426612428581
 113    0.0013130048781685
 114    -0.0085580539731149
 115     0.011258559496378
 116     0.010504674746317
 117    0.0014552510265746
 118    -0.0088942646469941
 119     0.028959831520926
 120    0.0023694928392899
 121    -0.014865719274866
 122     0.048505566631221
 123    0.0039506284123888
 124    -0.028374436007481
 125     0.083332089102858
 126    -0.0014125940154101
 127    0.00058088591631143
 128    0.0014553413981787
 129    -0.0010542496470794
 130    0.0014260623148317
 131    0.00025161472396003
 132    -0.0016521146270987
 133    0.0020275907246344
 134    0.0053872797908858
 135    0.0017291402350913
 136    5.633832809625e-05
 137    -0.0014777242444019
 138    0.0031791312828963
 139    0.00010230537669962
 140    -0.0023488813160188
 141    0.0043586394829137
 142    -0.00057357027860397
 143    -0.0068575953033515
 144    -2.6437650149053e-05
 145    0.00050346841299544
 146    3.2424370641191e-06
 147    -0.00023397469264081
 148    0.00015448843326165
 149    0.00020843661797149
 150    -0.0013827773677445
 151    0.0021065853451698
 152    0.0023961416063965
 153    0.0016558765378733
 154    0.00018419035968004
 155    0.00089447119944544
 156    0.0030161336848089
 157    0.00014191590560668
 158    0.0014915245422635
 159    0.0045430794885406
 160     0.001412087761216
 161    0.0032922088448417
 162    0.00028324671543055
 163    -0.00017207996386346
 164    1.0802739039208e-05
 165    -0.00031450103532119
 166    8.8321512020546e-05
 167    -0.00017373060345045
 168    0.0011700117521962
 169    -0.0019552343210384
 170    -0.002449656544193
 171    -0.0024734073601445
 172    -0.00035958450131612
 173    0.00066557442494494
 174    -0.0044087921586269
 175    -0.00054632721428048
 176      0.00122038744118
 177    -0.0064146001758336
 178    -0.0030437931482203
 179    0.00092742781355995
 180    -4.5162259411248e-05
 181    -0.00015594576608107
 182    -0.00012403473060106
 183    0.00043111331852936
 184    6.8963682310748e-06