[Molden Format]
made by pyscf v[2.1.1]
[Atoms] (AU)
Fe   1   26     3.17068844873907     0.00098706064664     0.12237737881307
O   2   8     0.00000000000000     0.00000000000000    -0.89004350580623
Fe   3   26    -3.17068844873907    -0.00098706064664     0.12237737881307
Cl   4   17     3.53383895113107    -2.07485195383062     3.76228752659000
Cl   5   17     5.54152580550813    -1.85590924879884    -2.78672786652360
Cl   6   17     4.48169216485503     3.92976278472880    -0.95330240907949
Cl   7   17    -3.53383895113107     2.07485195383062     3.76228752659000
Cl   8   17    -5.54152580550813     1.85590924879884    -2.78672786652360
Cl   9   17    -4.48169216485503    -3.92976278472880    -0.95330240907949
[GTO]
1 0
 s    6 1.00
          60923.640643  0.0017552243692958
          9147.8893982   0.013449023284001
          2081.3505927   0.066678874640978
          587.55977067    0.23176348548844
           191.0904399    0.46945550248188
          65.732730112     0.3596824938678
 s    3 1.00
          127.25891928   -0.10723431835929
           14.83091301    0.62971616328466
          6.0653307408    0.44472317896179
 s    3 1.00
           10.44994371   -0.21694289195548
          1.7245228003    0.69457867408393
         0.71772177325    0.43298308896347
 s    1 1.00
        0.091449828308                   1
 s    1 1.00
        0.033706691021                   1
 p    5 1.00
          773.43750995  0.0091440529992506
          182.15149714   0.067887577136571
          57.547272758    0.26167978878504
          20.614988935    0.51088040113251
           7.634855789    0.33235475570224
 p    3 1.00
           3.871932799    0.33193859098144
          1.4924724132     0.5553666555499
         0.56061284958    0.23106034201617
 p    1 1.00
              0.134915                   1
 d    4 1.00
          38.968133419   0.033335938558743
          10.800067078    0.17766212505983
          3.6136457999      0.441281781625
          1.2129967888    0.57089200490673
 d    1 1.00
          0.3652439317                   1
 f    1 1.00
                 1.598                   1

2 0
 s    5 1.00
          2266.1767785  -0.0053893503921743
          340.87010191   -0.04023472138896
          77.363135167   -0.18008184205526
           21.47964494   -0.46828857657651
          6.6589433124   -0.44692617160187
 s    1 1.00
         0.80975975668                   1
 s    1 1.00
         0.25530772234                   1
 p    3 1.00
          17.721504317   0.062630248763161
           3.863550544    0.33331138482352
          1.0480920883    0.74148638308122
 p    1 1.00
         0.27641544411                   1
 d    1 1.00
                   1.2                   1

3 0
 s    6 1.00
          60923.640643  0.0017552243692958
          9147.8893982   0.013449023284001
          2081.3505927   0.066678874640978
          587.55977067    0.23176348548844
           191.0904399    0.46945550248188
          65.732730112     0.3596824938678
 s    3 1.00
          127.25891928   -0.10723431835929
           14.83091301    0.62971616328466
          6.0653307408    0.44472317896179
 s    3 1.00
           10.44994371   -0.21694289195548
          1.7245228003    0.69457867408393
         0.71772177325    0.43298308896347
 s    1 1.00
        0.091449828308                   1
 s    1 1.00
        0.033706691021                   1
 p    5 1.00
          773.43750995  0.0091440529992506
          182.15149714   0.067887577136571
          57.547272758    0.26167978878504
          20.614988935    0.51088040113251
           7.634855789    0.33235475570224
 p    3 1.00
           3.871932799    0.33193859098144
          1.4924724132     0.5553666555499
         0.56061284958    0.23106034201617
 p    1 1.00
              0.134915                   1
 d    4 1.00
          38.968133419   0.033335938558743
          10.800067078    0.17766212505983
          3.6136457999      0.441281781625
          1.2129967888    0.57089200490673
 d    1 1.00
          0.3652439317                   1
 f    1 1.00
                 1.598                   1

4 0
 s    5 1.00
          10449.827566  0.0054265953789407
          1571.7365221   0.040626378128836
          357.12065523    0.18359747852877
          100.25185935    0.47438948768198
          30.812727554    0.43735181104122
 s    3 1.00
          51.923789434  -0.092754154848099
          5.7045760975    0.56380825544207
          2.3508376809    0.50367044629712
 s    1 1.00
         0.44605124672                   1
 s    1 1.00
          0.1684885619                   1
 p    5 1.00
          307.66790569  -0.0088797025588865
          72.102015515  -0.064284071721237
          22.532680262   -0.24288739736006
          7.8991765444   -0.48340836369878
          2.8767268321   -0.38952563875509
 p    1 1.00
         0.77459363955                   1
 p    1 1.00
         0.21037699698                   1
 d    1 1.00
                  0.65                   1

5 0
 s    5 1.00
          10449.827566  0.0054265953789407
          1571.7365221   0.040626378128836
          357.12065523    0.18359747852877
          100.25185935    0.47438948768198
          30.812727554    0.43735181104122
 s    3 1.00
          51.923789434  -0.092754154848099
          5.7045760975    0.56380825544207
          2.3508376809    0.50367044629712
 s    1 1.00
         0.44605124672                   1
 s    1 1.00
          0.1684885619                   1
 p    5 1.00
          307.66790569  -0.0088797025588865
          72.102015515  -0.064284071721237
          22.532680262   -0.24288739736006
          7.8991765444   -0.48340836369878
          2.8767268321   -0.38952563875509
 p    1 1.00
         0.77459363955                   1
 p    1 1.00
         0.21037699698                   1
 d    1 1.00
                  0.65                   1

6 0
 s    5 1.00
          10449.827566  0.0054265953789407
          1571.7365221   0.040626378128836
          357.12065523    0.18359747852877
          100.25185935    0.47438948768198
          30.812727554    0.43735181104122
 s    3 1.00
          51.923789434  -0.092754154848099
          5.7045760975    0.56380825544207
          2.3508376809    0.50367044629712
 s    1 1.00
         0.44605124672                   1
 s    1 1.00
          0.1684885619                   1
 p    5 1.00
          307.66790569  -0.0088797025588865
          72.102015515  -0.064284071721237
          22.532680262   -0.24288739736006
          7.8991765444   -0.48340836369878
          2.8767268321   -0.38952563875509
 p    1 1.00
         0.77459363955                   1
 p    1 1.00
         0.21037699698                   1
 d    1 1.00
                  0.65                   1

7 0
 s    5 1.00
          10449.827566  0.0054265953789407
          1571.7365221   0.040626378128836
          357.12065523    0.18359747852877
          100.25185935    0.47438948768198
          30.812727554    0.43735181104122
 s    3 1.00
          51.923789434  -0.092754154848099
          5.7045760975    0.56380825544207
          2.3508376809    0.50367044629712
 s    1 1.00
         0.44605124672                   1
 s    1 1.00
          0.1684885619                   1
 p    5 1.00
          307.66790569  -0.0088797025588865
          72.102015515  -0.064284071721237
          22.532680262   -0.24288739736006
          7.8991765444   -0.48340836369878
          2.8767268321   -0.38952563875509
 p    1 1.00
         0.77459363955                   1
 p    1 1.00
         0.21037699698                   1
 d    1 1.00
                  0.65                   1

8 0
 s    5 1.00
          10449.827566  0.0054265953789407
          1571.7365221   0.040626378128836
          357.12065523    0.18359747852877
          100.25185935    0.47438948768198
          30.812727554    0.43735181104122
 s    3 1.00
          51.923789434  -0.092754154848099
          5.7045760975    0.56380825544207
          2.3508376809    0.50367044629712
 s    1 1.00
         0.44605124672                   1
 s    1 1.00
          0.1684885619                   1
 p    5 1.00
          307.66790569  -0.0088797025588865
          72.102015515  -0.064284071721237
          22.532680262   -0.24288739736006
          7.8991765444   -0.48340836369878
          2.8767268321   -0.38952563875509
 p    1 1.00
         0.77459363955                   1
 p    1 1.00
         0.21037699698                   1
 d    1 1.00
                  0.65                   1

9 0
 s    5 1.00
          10449.827566  0.0054265953789407
          1571.7365221   0.040626378128836
          357.12065523    0.18359747852877
          100.25185935    0.47438948768198
          30.812727554    0.43735181104122
 s    3 1.00
          51.923789434  -0.092754154848099
          5.7045760975    0.56380825544207
          2.3508376809    0.50367044629712
 s    1 1.00
         0.44605124672                   1
 s    1 1.00
          0.1684885619                   1
 p    5 1.00
          307.66790569  -0.0088797025588865
          72.102015515  -0.064284071721237
          22.532680262   -0.24288739736006
          7.8991765444   -0.48340836369878
          2.8767268321   -0.38952563875509
 p    1 1.00
         0.77459363955                   1
 p    1 1.00
         0.21037699698                   1
 d    1 1.00
                  0.65                   1

[5d]
[7f]
[9g]

[MO]
 Sym= A
 Ene=               0
 Spin= Alpha
 Occup=    1.00000
   1    0.0041748474497806
   2    -0.011532664785058
   3     0.059590824712195
   4    -0.0090203325103212
   5    0.0033262284701374
   6    0.0052348718945581
   7     -0.01298006775718
   8    -0.016381038249979
   9     -0.01725403212622
  10     0.040985071349888
  11     0.051579235135518
  12     0.032166032765703
  13    -0.043658559166371
  14    -0.052473747916495
  15     0.014096964256365
  16    -0.042654403331506
  17     0.081479879818807
  18     0.043382802348465
  19    -0.041179409923483
  20    0.0085204149496949
  21    -0.030147656151658
  22     0.055119205480002
  23     0.028342562747294
  24    -0.028639107820213
  25    0.00010246335758314
  26    0.00095700461268427
  27    0.00071184522017968
  28    -0.00036595812393737
  29    0.0021976209571522
  30    0.00068643511269992
  31    -0.00069137501734601
  32    -7.1457884572618e-17
  33    -4.3030025324481e-17
  34    -3.6990599240961e-17
  35    -0.0014954780122228
  36    -0.032672798622956
  37    1.6090410806949e-16
  38    0.0020979871968278
  39    -0.022537298532656
  40    1.2105153541975e-16
  41    4.0067880591173e-18
  42    -0.00061755010145503
  43    3.1932113236774e-05
  44    -2.8316811711474e-18
  45    3.3296520686585e-18
  46    -0.0041748474497807
  47     0.011532664785058
  48    -0.059590824712195
  49    0.0090203325103211
  50    -0.0033262284701374
  51    0.0052348718945582
  52     -0.01298006775718
  53     0.016381038249979
  54    -0.017254032126221
  55     0.040985071349889
  56    -0.051579235135518
  57     0.032166032765704
  58    -0.043658559166372
  59     0.052473747916495
  60    -0.014096964256366
  61    -0.042654403331506
  62     0.081479879818808
  63    -0.043382802348466
  64     0.041179409923483
  65    -0.008520414949695
  66    -0.030147656151658
  67     0.055119205480002
  68    -0.028342562747294
  69     0.028639107820214
  70    -0.00010246335758314
  71    0.00095700461268427
  72    0.00071184522017968
  73    0.00036595812393737
  74    -0.0021976209571523
  75    0.00068643511269993
  76    -0.00069137501734601
  77    -0.0076829376246654
  78     0.054604678825572
  79    -0.090724194018973
  80    -0.047616286514895
  81    0.0028976713053414
  82     0.017897363377072
  83     0.056859267412428
  84    0.0068656122241242
  85     0.022254846566057
  86      0.12085706174588
  87    0.0069474576352769
  88     0.042991055194674
  89      0.17529454732547
  90    -0.0075092592544909
  91    -0.0013413996006834
  92    0.0051227073785073
  93    0.00060417133202848
  94    2.0424215995111e-05
  95     0.015732064448565
  96     -0.11102304702004
  97      0.19653274208869
  98      0.09589203450335
  99    -0.040570270222945
 100     0.039443250934227
 101     0.065145772315601
 102    -0.093785168405408
 103      0.08654062122582
 104      0.14218675673132
 105     -0.12813680726101
 106       0.1223613908834
 107      0.20204791020946
 108    0.0064472741286972
 109    -0.011976369186958
 110    0.0096137852688015
 111    0.0035375755525656
 112    -0.0063987073269253
 113    -0.010029623087368
 114     0.070376691821064
 115     -0.11302530071251
 116    -0.065535583173362
 117     0.019995586837075
 118     0.056381170440871
 119     0.014739206129279
 120     0.043749291980276
 121      0.12074318006995
 122     0.020296019318573
 123     0.058980223064878
 124      0.18079944482206
 125     0.037178596692947
 126    0.0042457572030981
 127    0.0011028975570551
 128    0.0052005390510087
 129    0.0059636682236042
 130    -0.0063289775074697
 131    0.0076829376246654
 132    -0.054604678825572
 133     0.090724194018973
 134     0.047616286514895
 135    0.0028976713053414
 136     0.017897363377072
 137    -0.056859267412428
 138    0.0068656122241242
 139     0.022254846566058
 140     -0.12085706174588
 141    0.0069474576352768
 142     0.042991055194674
 143     -0.17529454732547
 144    0.0075092592544909
 145    -0.0013413996006834
 146    0.0051227073785073
 147    -0.00060417133202847
 148    -2.0424215995109e-05
 149    -0.015732064448566
 150      0.11102304702004
 151      -0.1965327420887
 152    -0.095892034503351
 153    -0.040570270222945
 154     0.039443250934227
 155    -0.065145772315601
 156    -0.093785168405408
 157      0.08654062122582
 158     -0.14218675673132
 159     -0.12813680726101
 160      0.12236139088341
 161     -0.20204791020946
 162    -0.0064472741286972
 163    -0.011976369186958
 164    0.0096137852688016
 165    -0.0035375755525656
 166    0.0063987073269254
 167     0.010029623087369
 168    -0.070376691821064
 169      0.11302530071251
 170     0.065535583173362
 171     0.019995586837075
 172     0.056381170440872
 173    -0.014739206129279
 174     0.043749291980276
 175      0.12074318006995
 176    -0.020296019318573
 177     0.058980223064879
 178      0.18079944482206
 179    -0.037178596692947
 180    -0.0042457572030981
 181    0.0011028975570551
 182    0.0052005390510087
 183    -0.0059636682236042
 184    0.0063289775074698
 Sym= A
 Ene=               1
 Spin= Alpha
 Occup=    1.00000
   1    0.0045498674088375
   2    -0.012366365053441
   3     0.065964146632359
   4     0.006420529554179
   5    0.0031404748610926
   6    0.0052678630017072
   7    -0.015327255786036
   8    -0.014894819363424
   9    -0.017879075096612
  10     0.048281237900273
  11     0.046812606312853
  12     0.026896469694157
  13    -0.051348577391883
  14    -0.048301527081661
  15     0.031797878469545
  16    -0.036617615880461
  17     0.073589685955226
  18      0.03685053470268
  19    -0.049109158257477
  20     0.020101328997984
  21    -0.025105520120198
  22     0.049359336046832
  23     0.026155284038853
  24    -0.033713643870855
  25    0.00042564875806066
  26    0.00086047409269276
  27    0.00032294093337315
  28    -0.00074887095070159
  29    0.0023083586767091
  30    0.00086484058936416
  31    -0.00045336196077909
  32     0.047841893889134
  33     0.018974650043677
  34     0.018137525525799
  35    -5.0043900333537e-18
  36    -8.4786107059728e-17
  37    -0.047839377153614
  38    4.3412175024401e-18
  39    -5.4915156392123e-17
  40    -0.035962926105544
  41    -0.0011884854318228
  42    -2.0991702907952e-18
  43    4.6212041476577e-19
  44    0.0009793290078203
  45    -0.0010709992557004
  46    0.0045498674088375
  47    -0.012366365053441
  48     0.065964146632359
  49     0.006420529554179
  50    0.0031404748610926
  51    -0.0052678630017073
  52     0.015327255786036
  53    -0.014894819363424
  54     0.017879075096612
  55    -0.048281237900273
  56     0.046812606312853
  57    -0.026896469694157
  58     0.051348577391883
  59     -0.04830152708166
  60     0.031797878469545
  61     0.036617615880461
  62    -0.073589685955226
  63      0.03685053470268
  64    -0.049109158257477
  65     0.020101328997984
  66     0.025105520120197
  67    -0.049359336046832
  68     0.026155284038853
  69    -0.033713643870855
  70    0.00042564875806066
  71    -0.00086047409269276
  72    -0.00032294093337314
  73    -0.00074887095070159
  74    0.0023083586767091
  75    -0.00086484058936415
  76    0.00045336196077908
  77    -0.004650358611421
  78     0.033711631161361
  79      -0.0558879561665
  80     -0.02891871478362
  81    -0.0047140704898748
  82     0.030168761420941
  83     0.044249938205711
  84    -0.0060842277048293
  85     0.046674271622603
  86     0.093763069144068
  87    -0.013408427241962
  88     0.079463619979766
  89      0.13889585962146
  90    -0.005556927075552
  91    -0.0012054818478983
  92    0.0021433753081625
  93    -0.0008369601364242
  94    -0.00021232098096752
  95     0.016261195103219
  96     -0.11470757601456
  97      0.20374864863419
  98     0.099131675694742
  99     -0.04685256459677
 100     0.042250258820813
 101     0.062253607329643
 102     -0.10557853147203
 103     0.091761805528445
 104      0.13749352833335
 105     -0.14565142732466
 106      0.13155444966144
 107      0.19447352699808
 108    0.0062443537120734
 109    -0.012761066360265
 110     0.009842680534282
 111    0.0039893743704341
 112    -0.0071618991576284
 113    -0.010739621419184
 114     0.075373958652509
 115     -0.12034676235888
 116    -0.069692644722063
 117     0.014754314106289
 118     0.061213025002078
 119    0.0090450846898666
 120     0.034916663467108
 121      0.13110366076257
 122     0.009703044125855
 123     0.045403782081729
 124      0.19504751060738
 125     0.020496313416077
 126    0.0041312187078097
 127    0.0011986669594099
 128    0.0061488921321883
 129    0.0065245369976877
 130     -0.00587960035199
 131    -0.004650358611421
 132      0.03371163116136
 133    -0.055887956166499
 134    -0.028918714783619
 135    0.0047140704898748
 136    -0.030168761420941
 137      0.04424993820571
 138    0.0060842277048293
 139    -0.046674271622603
 140     0.093763069144068
 141     0.013408427241962
 142    -0.079463619979766
 143      0.13889585962146
 144    -0.0055569270755519
 145    0.0012054818478983
 146    -0.0021433753081624
 147    -0.0008369601364242
 148    -0.00021232098096752
 149     0.016261195103219
 150     -0.11470757601456
 151      0.20374864863419
 152     0.099131675694742
 153     0.046852564596769
 154    -0.042250258820813
 155     0.062253607329642
 156      0.10557853147203
 157    -0.091761805528445
 158      0.13749352833335
 159      0.14565142732466
 160     -0.13155444966144
 161      0.19447352699808
 162    0.0062443537120734
 163     0.012761066360265
 164    -0.0098426805342819
 165    0.0039893743704341
 166    -0.0071618991576284
 167    -0.010739621419184
 168     0.075373958652509
 169     -0.12034676235888
 170    -0.069692644722063
 171    -0.014754314106289
 172    -0.061213025002078
 173    0.0090450846898666
 174    -0.034916663467108
 175     -0.13110366076257
 176    0.0097030441258549
 177    -0.045403782081728
 178     -0.19504751060738
 179     0.020496313416077
 180    0.0041312187078097
 181    -0.0011986669594099
 182    -0.0061488921321883
 183    0.0065245369976876
 184     -0.00587960035199
 Sym= A
 Ene=               2
 Spin= Alpha
 Occup=    1.00000
   1    -0.0039164417065539
   2     0.011080181414529
   3    -0.054596621194164
   4    0.0037119315936712
   5    -0.011347523153115
   6    -0.0035822608435643
   7    -0.015710686613246
   8     0.013586425344621
   9     0.011379636398081
  10     0.050005888811329
  11    -0.043242352434818
  12    -0.023112403034499
  13     -0.05320756371336
  14     0.043919871308236
  15     0.071817999462226
  16    0.0092155473405089
  17    -0.026785297074935
  18     0.025986113123332
  19    -0.015139080635433
  20     0.052690309336226
  21    0.0084054430558073
  22    -0.020756777387813
  23     0.019883218432109
  24      -0.0102457419939
  25    0.00053215102202231
  26    0.0011737388289253
  27    -0.00074501037473955
  28    -0.00087250083582587
  29    -0.00051631611539459
  30    0.0012276291938081
  31    0.00051130295945331
  32    2.4325345429562e-16
  33    6.5437006357404e-17
  34    3.8686349081555e-17
  35    -0.0012135025188507
  36      -0.0329365367779
  37    -4.3092464245435e-16
  38    -0.0030340388634001
  39      -0.0201620048604
  40    -2.8147887030582e-16
  41    -1.8815052471013e-17
  42    8.2886839966164e-06
  43    -0.0010322898309189
  44    1.0183850773414e-18
  45    4.9374488310194e-18
  46     0.003916441706554
  47    -0.011080181414529
  48     0.054596621194165
  49    -0.0037119315936711
  50     0.011347523153115
  51    -0.0035822608435644
  52    -0.015710686613247
  53    -0.013586425344621
  54     0.011379636398081
  55      0.05000588881133
  56     0.043242352434819
  57      -0.0231124030345
  58    -0.053207563713361
  59    -0.043919871308237
  60    -0.071817999462227
  61    0.0092155473405091
  62    -0.026785297074935
  63    -0.025986113123333
  64     0.015139080635433
  65    -0.052690309336227
  66    0.0084054430558075
  67    -0.020756777387814
  68    -0.019883218432109
  69       0.0102457419939
  70    -0.00053215102202232
  71    0.0011737388289254
  72    -0.00074501037473956
  73    0.00087250083582588
  74    0.00051631611539461
  75    0.0012276291938081
  76    0.00051130295945332
  77       0.0131966272519
  78    -0.093764805130184
  79      0.15700409828564
  80     0.086678482756523
  81    0.0020763414008813
  82     0.074601961262245
  83    -0.039906061362846
  84    0.00065427408173001
  85      0.15218584214942
  86     -0.10159914769677
  87    0.0065390344263587
  88      0.22758236782725
  89     -0.13789106723312
  90    0.0058226218751416
  91    0.0011560810394612
  92    -0.014525130916451
  93    -0.0058710441101789
  94    -0.00038071357044578
  95    -0.00054025299396306
  96    0.0036096909371535
  97    -0.010831358071429
  98    0.0034552165588983
  99    -0.008390172935924
 100     0.044665478971732
 101    -0.041602234453082
 102    -0.015707218116499
 103     0.080211629849547
 104     -0.07508452428185
 105    -0.025804900761943
 106      0.13407225833249
 107     -0.11499703380307
 108    -0.0036111765076108
 109    0.0011500367882013
 110    0.00053010058629091
 111    -0.00041476342473297
 112    -0.0022856976592538
 113    -0.011185262107032
 114     0.078034559312907
 115     -0.13235933371389
 116    -0.067042845315142
 117      0.01085045807973
 118       0.0499043072634
 119    -0.065677888526268
 120     0.025746791187822
 121      0.10894067986472
 122     -0.12289135278147
 123     0.035895727625576
 124      0.15219811517687
 125     -0.19250582955136
 126    0.0020263654050725
 127    0.0025916303058816
 128     0.011219199269286
 129    0.0068849783745003
 130    -0.0052132722854995
 131      -0.0131966272519
 132     0.093764805130185
 133     -0.15700409828565
 134    -0.086678482756525
 135    0.0020763414008815
 136     0.074601961262246
 137     0.039906061362847
 138    0.00065427408173023
 139      0.15218584214942
 140      0.10159914769678
 141    0.0065390344263591
 142      0.22758236782725
 143      0.13789106723312
 144    -0.0058226218751418
 145    0.0011560810394612
 146    -0.014525130916452
 147     0.005871044110179
 148    0.00038071357044579
 149    0.00054025299396295
 150    -0.0036096909371539
 151     0.010831358071429
 152    -0.0034552165588981
 153    -0.0083901729359239
 154     0.044665478971733
 155     0.041602234453083
 156    -0.015707218116499
 157     0.080211629849548
 158     0.075084524281852
 159    -0.025804900761943
 160      0.13407225833249
 161      0.11499703380307
 162    0.0036111765076109
 163    0.0011500367882014
 164    0.0005301005862909
 165     0.000414763424733
 166    0.0022856976592539
 167     0.011185262107033
 168    -0.078034559312908
 169      0.13235933371389
 170     0.067042845315143
 171      0.01085045807973
 172     0.049904307263401
 173     0.065677888526269
 174     0.025746791187823
 175      0.10894067986473
 176      0.12289135278147
 177     0.035895727625577
 178      0.15219811517687
 179      0.19250582955137
 180    -0.0020263654050726
 181    0.0025916303058816
 182     0.011219199269286
 183    -0.0068849783745005
 184    0.0052132722854996
 Sym= A
 Ene=               3
 Spin= Alpha
 Occup=    1.00000
   1    -0.0049447453709067
   2     0.013660075114887
   3    -0.070685634564079
   4    -0.0070352806053202
   5    -0.010318323682238
   6    -0.0034898387338045
   7    -0.014006496069109
   8     0.016274972317527
   9     0.012343125823798
  10     0.044346202982959
  11    -0.051601231581044
  12    -0.026640205051806
  13    -0.044477190476854
  14     0.053841968274494
  15     0.060879128315069
  16     0.010096052524226
  17    -0.036836337794399
  18     0.031796931991497
  19    -0.016523943315027
  20     0.045563237853116
  21     0.007337233871921
  22    -0.027484426733733
  23     0.023080534393579
  24    -0.011904207188209
  25    0.00034623568937351
  26    0.0012798794777422
  27    -0.00063614757453275
  28    -0.00068247740680459
  29    -0.00075308695677738
  30    0.0010354407867553
  31    0.00083609028936968
  32    -0.023169721815148
  33    -0.0073355103894017
  34    -0.0041541349299892
  35    -1.5504088278713e-17
  36    -3.0062690589908e-16
  37     0.042022426080181
  38    -3.5314599771657e-17
  39    -1.8114689469407e-16
  40     0.027008844493473
  41    0.0019128520530549
  42    4.1188766142548e-20
  43    -9.7173555163119e-18
  44    -0.00011491820412147
  45    -0.00051540967098011
  46    -0.0049447453709066
  47     0.013660075114887
  48    -0.070685634564078
  49    -0.0070352806053203
  50    -0.010318323682237
  51    0.0034898387338046
  52     0.014006496069109
  53     0.016274972317527
  54    -0.012343125823797
  55    -0.044346202982958
  56    -0.051601231581043
  57     0.026640205051806
  58     0.044477190476853
  59     0.053841968274493
  60     0.060879128315067
  61    -0.010096052524226
  62     0.036836337794399
  63     0.031796931991496
  64    -0.016523943315027
  65     0.045563237853114
  66    -0.0073372338719208
  67     0.027484426733732
  68     0.023080534393578
  69    -0.011904207188209
  70    0.0003462356893735
  71    -0.0012798794777422
  72    0.00063614757453273
  73    -0.00068247740680458
  74    -0.00075308695677737
  75    -0.0010354407867553
  76    -0.00083609028936967
  77      0.01304127648933
  78    -0.093000246977944
  79      0.15350473397813
  80     0.090437103136805
  81    0.0072307130228863
  82     0.066852705618841
  83    -0.043633979155936
  84    0.0098581777486693
  85      0.13887324871386
  86     -0.10980794345898
  87     0.018013316533341
  88      0.20797653878848
  89     -0.15178196212605
  90    0.0060608333694378
  91     0.001081345255609
  92    -0.014215089947693
  93    -0.0052009833484403
  94    -0.00051700432001646
  95    -0.0028618848244777
  96     0.019917891120145
  97     -0.04063211214784
  98    -0.0088017469425846
  99    0.0060655742022465
 100     0.041785248658305
 101    -0.046945852145215
 102     0.012884635171088
 103      0.07302442359909
 104     -0.08801960958835
 105      0.01503062720636
 106      0.12459670669515
 107      -0.1324380142667
 108    -0.0039643572045838
 109    0.0035087324105614
 110    -0.00064697527816052
 111    -0.0015470775991172
 112    -0.00096530165879313
 113    -0.010609094885256
 114      0.07385664038021
 115     -0.12731137328378
 116    -0.061045368136228
 117     0.012276850240659
 118     0.044843993475541
 119     -0.07156229649704
 120     0.027610177757029
 121     0.098080425309641
 122     -0.13274245020573
 123     0.038192664361628
 124      0.13425307987871
 125     -0.20859527237533
 126    0.0014629149557082
 127    0.0025794254581799
 128     0.011132026789285
 129    0.0066889583245648
 130    -0.0049209908525626
 131      0.01304127648933
 132    -0.093000246977942
 133      0.15350473397813
 134     0.090437103136803
 135    -0.0072307130228862
 136     -0.06685270561884
 137    -0.043633979155935
 138    -0.0098581777486694
 139     -0.13887324871385
 140     -0.10980794345898
 141     -0.01801331653334
 142     -0.20797653878848
 143     -0.15178196212605
 144    0.0060608333694376
 145    -0.001081345255609
 146     0.014215089947693
 147    -0.0052009833484402
 148    -0.00051700432001646
 149    -0.0028618848244777
 150     0.019917891120145
 151     -0.04063211214784
 152    -0.0088017469425847
 153    -0.0060655742022467
 154    -0.041785248658304
 155    -0.046945852145214
 156    -0.012884635171088
 157    -0.073024423599089
 158    -0.088019609588348
 159    -0.015030627206361
 160     -0.12459670669515
 161     -0.13243801426669
 162    -0.0039643572045838
 163    -0.0035087324105614
 164    0.00064697527816053
 165    -0.0015470775991172
 166    -0.00096530165879309
 167    -0.010609094885255
 168     0.073856640380208
 169     -0.12731137328378
 170    -0.061045368136227
 171    -0.012276850240659
 172     -0.04484399347554
 173    -0.071562296497039
 174    -0.027610177757029
 175    -0.098080425309639
 176     -0.13274245020573
 177    -0.038192664361627
 178     -0.13425307987871
 179     -0.20859527237533
 180    0.0014629149557082
 181    -0.0025794254581799
 182    -0.011132026789285
 183    0.0066889583245647
 184    -0.0049209908525625
 Sym= A
 Ene=               4
 Spin= Alpha
 Occup=    1.00000
   1    -0.017297096876766
   2      0.04645579958171
   3     -0.25387445766453
   4     0.053116163131145
   5    -0.013711839742689