[Molden Format]
made by pyscf v[2.1.1]
[Atoms] (AU)
Fe   1   26     3.17068844873907     0.00098706064664     0.12237737881307
O   2   8     0.00000000000000     0.00000000000000    -0.89004350580623
Fe   3   26    -3.17068844873907    -0.00098706064664     0.12237737881307
Cl   4   17     3.53383895113107    -2.07485195383062     3.76228752659000
Cl   5   17     5.54152580550813    -1.85590924879884    -2.78672786652360
Cl   6   17     4.48169216485503     3.92976278472880    -0.95330240907949
Cl   7   17    -3.53383895113107     2.07485195383062     3.76228752659000
Cl   8   17    -5.54152580550813     1.85590924879884    -2.78672786652360
Cl   9   17    -4.48169216485503    -3.92976278472880    -0.95330240907949
[GTO]
1 0
 s    6 1.00
          60923.640643  0.0017552243692958
          9147.8893982   0.013449023284001
          2081.3505927   0.066678874640978
          587.55977067    0.23176348548844
           191.0904399    0.46945550248188
          65.732730112     0.3596824938678
 s    3 1.00
          127.25891928   -0.10723431835929
           14.83091301    0.62971616328466
          6.0653307408    0.44472317896179
 s    3 1.00
           10.44994371   -0.21694289195548
          1.7245228003    0.69457867408393
         0.71772177325    0.43298308896347
 s    1 1.00
        0.091449828308                   1
 s    1 1.00
        0.033706691021                   1
 p    5 1.00
          773.43750995  0.0091440529992506
          182.15149714   0.067887577136571
          57.547272758    0.26167978878504
          20.614988935    0.51088040113251
           7.634855789    0.33235475570224
 p    3 1.00
           3.871932799    0.33193859098144
          1.4924724132     0.5553666555499
         0.56061284958    0.23106034201617
 p    1 1.00
              0.134915                   1
 d    4 1.00
          38.968133419   0.033335938558743
          10.800067078    0.17766212505983
          3.6136457999      0.441281781625
          1.2129967888    0.57089200490673
 d    1 1.00
          0.3652439317                   1
 f    1 1.00
                 1.598                   1

2 0
 s    5 1.00
          2266.1767785  -0.0053893503921743
          340.87010191   -0.04023472138896
          77.363135167   -0.18008184205526
           21.47964494   -0.46828857657651
          6.6589433124   -0.44692617160187
 s    1 1.00
         0.80975975668                   1
 s    1 1.00
         0.25530772234                   1
 p    3 1.00
          17.721504317   0.062630248763161
           3.863550544    0.33331138482352
          1.0480920883    0.74148638308122
 p    1 1.00
         0.27641544411                   1
 d    1 1.00
                   1.2                   1

3 0
 s    6 1.00
          60923.640643  0.0017552243692958
          9147.8893982   0.013449023284001
          2081.3505927   0.066678874640978
          587.55977067    0.23176348548844
           191.0904399    0.46945550248188
          65.732730112     0.3596824938678
 s    3 1.00
          127.25891928   -0.10723431835929
           14.83091301    0.62971616328466
          6.0653307408    0.44472317896179
 s    3 1.00
           10.44994371   -0.21694289195548
          1.7245228003    0.69457867408393
         0.71772177325    0.43298308896347
 s    1 1.00
        0.091449828308                   1
 s    1 1.00
        0.033706691021                   1
 p    5 1.00
          773.43750995  0.0091440529992506
          182.15149714   0.067887577136571
          57.547272758    0.26167978878504
          20.614988935    0.51088040113251
           7.634855789    0.33235475570224
 p    3 1.00
           3.871932799    0.33193859098144
          1.4924724132     0.5553666555499
         0.56061284958    0.23106034201617
 p    1 1.00
              0.134915                   1
 d    4 1.00
          38.968133419   0.033335938558743
          10.800067078    0.17766212505983
          3.6136457999      0.441281781625
          1.2129967888    0.57089200490673
 d    1 1.00
          0.3652439317                   1
 f    1 1.00
                 1.598                   1

4 0
 s    5 1.00
          10449.827566  0.0054265953789407
          1571.7365221   0.040626378128836
          357.12065523    0.18359747852877
          100.25185935    0.47438948768198
          30.812727554    0.43735181104122
 s    3 1.00
          51.923789434  -0.092754154848099
          5.7045760975    0.56380825544207
          2.3508376809    0.50367044629712
 s    1 1.00
         0.44605124672                   1
 s    1 1.00
          0.1684885619                   1
 p    5 1.00
          307.66790569  -0.0088797025588865
          72.102015515  -0.064284071721237
          22.532680262   -0.24288739736006
          7.8991765444   -0.48340836369878
          2.8767268321   -0.38952563875509
 p    1 1.00
         0.77459363955                   1
 p    1 1.00
         0.21037699698                   1
 d    1 1.00
                  0.65                   1

5 0
 s    5 1.00
          10449.827566  0.0054265953789407
          1571.7365221   0.040626378128836
          357.12065523    0.18359747852877
          100.25185935    0.47438948768198
          30.812727554    0.43735181104122
 s    3 1.00
          51.923789434  -0.092754154848099
          5.7045760975    0.56380825544207
          2.3508376809    0.50367044629712
 s    1 1.00
         0.44605124672                   1
 s    1 1.00
          0.1684885619                   1
 p    5 1.00
          307.66790569  -0.0088797025588865
          72.102015515  -0.064284071721237
          22.532680262   -0.24288739736006
          7.8991765444   -0.48340836369878
          2.8767268321   -0.38952563875509
 p    1 1.00
         0.77459363955                   1
 p    1 1.00
         0.21037699698                   1
 d    1 1.00
                  0.65                   1

6 0
 s    5 1.00
          10449.827566  0.0054265953789407
          1571.7365221   0.040626378128836
          357.12065523    0.18359747852877
          100.25185935    0.47438948768198
          30.812727554    0.43735181104122
 s    3 1.00
          51.923789434  -0.092754154848099
          5.7045760975    0.56380825544207
          2.3508376809    0.50367044629712
 s    1 1.00
         0.44605124672                   1
 s    1 1.00
          0.1684885619                   1
 p    5 1.00
          307.66790569  -0.0088797025588865
          72.102015515  -0.064284071721237
          22.532680262   -0.24288739736006
          7.8991765444   -0.48340836369878
          2.8767268321   -0.38952563875509
 p    1 1.00
         0.77459363955                   1
 p    1 1.00
         0.21037699698                   1
 d    1 1.00
                  0.65                   1

7 0
 s    5 1.00
          10449.827566  0.0054265953789407
          1571.7365221   0.040626378128836
          357.12065523    0.18359747852877
          100.25185935    0.47438948768198
          30.812727554    0.43735181104122
 s    3 1.00
          51.923789434  -0.092754154848099
          5.7045760975    0.56380825544207
          2.3508376809    0.50367044629712
 s    1 1.00
         0.44605124672                   1
 s    1 1.00
          0.1684885619                   1
 p    5 1.00
          307.66790569  -0.0088797025588865
          72.102015515  -0.064284071721237
          22.532680262   -0.24288739736006
          7.8991765444   -0.48340836369878
          2.8767268321   -0.38952563875509
 p    1 1.00
         0.77459363955                   1
 p    1 1.00
         0.21037699698                   1
 d    1 1.00
                  0.65                   1

8 0
 s    5 1.00
          10449.827566  0.0054265953789407
          1571.7365221   0.040626378128836
          357.12065523    0.18359747852877
          100.25185935    0.47438948768198
          30.812727554    0.43735181104122
 s    3 1.00
          51.923789434  -0.092754154848099
          5.7045760975    0.56380825544207
          2.3508376809    0.50367044629712
 s    1 1.00
         0.44605124672                   1
 s    1 1.00
          0.1684885619                   1
 p    5 1.00
          307.66790569  -0.0088797025588865
          72.102015515  -0.064284071721237
          22.532680262   -0.24288739736006
          7.8991765444   -0.48340836369878
          2.8767268321   -0.38952563875509
 p    1 1.00
         0.77459363955                   1
 p    1 1.00
         0.21037699698                   1
 d    1 1.00
                  0.65                   1

9 0
 s    5 1.00
          10449.827566  0.0054265953789407
          1571.7365221   0.040626378128836
          357.12065523    0.18359747852877
          100.25185935    0.47438948768198
          30.812727554    0.43735181104122
 s    3 1.00
          51.923789434  -0.092754154848099
          5.7045760975    0.56380825544207
          2.3508376809    0.50367044629712
 s    1 1.00
         0.44605124672                   1
 s    1 1.00
          0.1684885619                   1
 p    5 1.00
          307.66790569  -0.0088797025588865
          72.102015515  -0.064284071721237
          22.532680262   -0.24288739736006
          7.8991765444   -0.48340836369878
          2.8767268321   -0.38952563875509
 p    1 1.00
         0.77459363955                   1
 p    1 1.00
         0.21037699698                   1
 d    1 1.00
                  0.65                   1

[5d]
[7f]
[9g]

[MO]
 Sym= A
 Ene=               0
 Spin= Alpha
 Occup=    1.00000
   1     0.001130206324941
   2    -0.0025956322070652
   3      0.01846083940132
   4    -0.0014659121161521
   5    -0.018423700860863
   6    -0.0038359275651869
   7    -0.0002731052905756
   8    -0.0020686462566716
   9     0.011834022669304
  10    0.00087762432527464
  11    0.0064632464216538
  12     0.015191837514731
  13    -0.0019669992602313
  14    0.0013963607347078
  15    -0.0018318628786426
  16    0.0056017981032952
  17    0.0048971555470105
  18     0.006741923621002
  19    -0.0019072120225976
  20    -0.00094816900091188
  21    -0.0002325550199744
  22    0.0024704691611261
  23    0.0015799197448596
  24    -0.0012849919110822
  25    2.937043190222e-05
  26    -8.3887677137493e-05
  27    6.7167695045704e-05
  28    -6.3257725633994e-05
  29    9.2104938856107e-05
  30    0.00011025736946546
  31    -3.9684178223211e-05
  32    -0.053227595630777
  33    -0.088901292629809
  34    -0.074547868286838
  35     0.054229325997025
  36    0.0018357742435377
  37    -0.021113184950258
  38     0.060769477023092
  39    0.0003247162981585
  40    -0.022051585726581
  41    0.0012937019815402
  42    0.0026015357705038
  43    -5.5742318866663e-05
  44    -0.0039419753331578
  45    -6.9758719550212e-05
  46    -0.021732330638211
  47     0.057230391827723
  48     -0.32239039821723
  49     -0.27823531491998
  50     0.087287826646238
  51    0.0040115429338703
  52    -0.0007029600564416
  53    0.00044962621001859
  54    -0.014064484213533
  55    0.0021498214484059
  56    -0.00064417854070162
  57     0.061113850509106
  58    0.0026919265055877
  59    -0.022083067695129
  60    -0.012225686487475
  61    -0.016112276929745
  62    -0.024764910454252
  63     0.018207460108134
  64    -0.00019190050069809
  65    -0.012602301148426
  66    -0.017380006509749
  67    -0.017146658967766
  68     0.021916738098431
  69    -0.00029253253105582
  70    -0.0019955909510275
  71    0.0012793706865281
  72    -0.0028312447645206
  73    0.0011713833677133
  74    -0.00037059274547256
  75    -0.0021732779466858
  76    -0.00090635925862244
  77    -0.0009108832469093
  78    0.0061224406346018
  79    -0.0056913022307426
  80    -0.0074224614850488
  81    0.0087963070792177
  82    -0.00092968907472883
  83    0.0040320640081725
  84     0.015326345533262
  85    -0.0021551779102562
  86    0.0082583075339566
  87     0.025847818328099
  88    -0.0042344338487676
  89     0.013429865845452
  90    -0.00046741480602225
  91    -0.00096734330363051
  92    0.00077751527610254
  93    1.2236265925562e-05
  94    0.00062888304302108
  95    0.0011924334132857
  96    -0.0083346364246313
  97     0.015201329212787
  98     0.014499638608859
  99    0.0018251172661272
 100    0.0030532330877353
 101    0.0070493259859843
 102    0.0019286024571134
 103    0.0064312321359701
 104     0.014279170515395
 105    0.0031741272031229
 106    0.0098953464693144
 107      0.02118427024342
 108    0.00054073157936448
 109    -0.00078244506721077
 110    0.00091926778649174
 111    0.00015210365342781
 112    -0.0005316865777259
 113    -0.00011732196197558
 114    0.00073734388219941
 115    0.00094469353433335
 116    0.0038054916388105
 117    0.0064664421042366
 118    -9.780084683736e-05
 119     0.002367393596572
 120     0.011319224622598
 121    1.4656272968164e-05
 122    0.0042807113355276
 123     0.017953540436713
 124    -0.0007247531452926
 125    0.0062070610122493
 126    -5.2413923354401e-05
 127    0.00023987303202564
 128    1.4974330326872e-05
 129    -0.0002077366232023
 130    -0.00030822070578723
 131    -0.014794060906147
 132      0.10250929293202
 133     -0.20273546586336
 134     -0.11640544361728
 135    -0.010130963019316
 136     0.035823230356015
 137     0.063520857031272
 138    -0.020153305733625
 139     0.075196403382901
 140      0.13453974627675
 141    -0.032321602473486
 142      0.10057722873891
 143      0.17862988359239
 144    -0.012094301489063
 145    0.0022050281121939
 146    -0.014770172668884
 147    0.0044409828135384
 148    0.0013702903567287
 149    -0.012473844277565
 150     0.086298284018809
 151     -0.17681523731786
 152     -0.10002930101097
 153    -0.035772364492708
 154     0.025479286317274
 155    -0.039721916106756
 156    -0.073744391025499
 157     0.055032136514665
 158    -0.083685329847661
 159     -0.10326124992796
 160     0.067584951233653
 161     -0.10742860224916
 162    -0.0044764804185016
 163    -0.011834939721865
 164    0.0092600343611884
 165    -0.0010900577954344
 166    0.0073363646367592
 167    -0.013479563738853
 168     0.093205986720744
 169     -0.18520823330116
 170     -0.10651598599103
 171    -0.024239431791194
 172    -0.060751405443957
 173    -0.016329944829879
 174    -0.049229464010724
 175     -0.12804334245251
 176    -0.032663769368917
 177    -0.071926327736291
 178       -0.168212204037
 179    -0.046590867986809
 180    0.0063851266825168
 181    -0.0026093395000497
 182    -0.0077096990503972
 183     0.011758451642979
 184    -0.0078404214820094
 Sym= A
 Ene=               1
 Spin= Alpha
 Occup=    1.00000
   1    -0.0010606142127835
   2    0.0031564884971991
   3    -0.014167210700931
   4     0.016659284350133
   5    -0.0068392517512198
   6    -0.0049682754685145
   7    0.00041544246043392
   8    0.0022076432931833
   9      0.01585881241487
  10    -0.0013057777757138
  11    -0.0070745969962358
  12    -0.015405182054615
  13     0.001456939556563
  14     0.021563170583342
  15    -0.0012549273297628
  16    -0.0023126000022858
  17    0.0011689120835666
  18    0.0012744412866247
  19    -0.00061983787282435
  20    -0.0026645669883169
  21    -0.005597248101106
  22    -0.00018537504734877
  23    0.0014254323032911
  24    -0.00092620970954811
  25    -0.00012106564010526
  26    0.00089892623448393
  27    4.4619150200589e-05
  28    0.00025451012036986
  29    5.5407838217877e-05
  30    -0.00061862267452716
  31    9.4572602241958e-05
  32    -0.0016390232976191
  33    -0.0064303957263998
  34    0.0031142840793004
  35    0.0087847072402734
  36     0.010011651983981
  37      0.11335875217844
  38     0.010143447031143
  39    0.0092178052199538
  40      0.11251787706681
  41     0.001207563112877
  42    0.0027257897090954
  43    0.00033382643812518
  44    0.00081531025214899
  45    0.0003468870819876
  46    -1.9351499160139e-05
  47    9.5901568242713e-05
  48    -8.9635983188164e-05
  49    -0.0033696844838295
  50    -0.0061516345254379
  51    -0.00022550334088994
  52    0.0020936338295874
  53    -0.0082199946317526
  54    0.00065871740572807
  55    -0.0064925312805791
  56     0.025971458416664
  57    -0.002522101894151
  58     0.012286428807225
  59    -0.016875952136511
  60      0.39368692586064
  61     -0.60327724607864
  62      0.41297375716062
  63     -0.26764729017519
  64     0.018129406772594
  65      0.10162658719389
  66     -0.15514720317052
  67       0.1072902860213
  68    -0.068525862001774
  69    0.0036689758534359
  70    -0.00035356718092196
  71    -0.0029018993247277
  72    0.00033977442340917
  73    0.0011268839607422
  74    3.1676195790664e-05
  75    0.0010396386945525
  76    0.0002897158458999
  77    -0.000359674438834
  78    0.0024125950546744
  79    -0.0035549375804582
  80    -0.0064549560184547
  81    0.0017696634174443
  82    -0.0013189745291405
  83    0.0015375738720936
  84    0.0031980621868233
  85    -0.0020696314690726
  86    0.0025944457786563
  87    0.0054011497009071
  88    -0.0068636886270369
  89    0.0076885814667764
  90    -6.6504454415142e-05
  91    0.00071901425261284
  92    -6.9012330479011e-05
  93    0.00026231691434582
  94    -0.0004110696391804
  95    0.00016322697873179
  96    -0.0010680349729684
  97    0.00061495890199676
  98    0.0075888825046798
  99    -0.0022036173295467
 100    4.1377249563801e-05
 101    -0.0014570939615074
 102    -0.0038825373768809
 103    -0.00011920027594659
 104    -0.002620331683456
 105    -0.0072549283811965
 106    0.0028719232302016
 107    -0.0011008180588112
 108    0.00010183132211945
 109    -0.00034028633394986
 110    0.00014736601814756
 111    -0.00022845937674183
 112    -3.4183016803598e-05
 113    -8.2214538824448e-05
 114    0.00056743437921848
 115    -0.0016694255667633
 116    0.0024439944528179
 117    0.00039672881723523
 118    0.00038492492843255
 119    -0.0017672985187898
 120    0.00061840143294991
 121    0.00083627414674816
 122    -0.0029176161758873
 123    0.0017087537807084
 124    -0.00060411852937422
 125    -0.0057683187827098
 126    -0.00017255852574712
 127    -0.00031955854535104
 128    -0.00010802997782848
 129    -2.4925571129368e-05
 130    0.0002192347783039
 131    -0.0042080299550272
 132     0.027632678420286
 133    -0.035866298211688
 134    -0.032364841926872
 135    0.0082707400251649
 136       0.0191588041661
 137     0.040217063230915
 138     0.013761223689662
 139     0.032677812266842
 140      0.06916705467911
 141     0.023152930544526
 142     0.058806868598403
 143      0.12077157632099
 144    0.00019242946314193
 145    0.0010838189505726
 146    -0.0010107982714813
 147    0.00044211659183486
 148    0.00094723361887302
 149    0.0038562110731908
 150    -0.025266036837059
 151     0.032390664365516
 152     0.030370433195878
 153      0.01199621467913
 154    -0.018172326952073
 155     0.037483315234772
 156     0.020889975051927
 157    -0.031011940437775
 158     0.063918238495804
 159     0.036784315922336
 160    -0.054803018535379
 161      0.11020754996095
 162    -0.00036898598756609
 163    0.0012244982236682
 164    -0.00027300674707797
 165    0.0010785997549294
 166    -0.0015561100663289
 167    -0.00082574194181425
 168    0.0055055108451074
 169    -0.0095743929389955
 170    0.00077301543393109
 171    -0.0091358504430844
 172    -0.0075413162791347
 173     0.010329031528953
 174    -0.015485682811498
 175    -0.013247599493155
 176     0.017343452744539
 177    -0.025284903703296
 178    -0.020063832840372
 179     0.029684973870406
 180    -0.00055248263546985
 181    -0.00065418073278294
 182    -0.0015615830178233
 183    -0.00035725051332862
 184    0.0010446017940147
 Sym= A
 Ene=               2
 Spin= Alpha
 Occup=    1.00000
   1    -0.00091910234268393
   2     0.002691963069941
   3    -0.012486829337519
   4     0.011032303842692
   5    0.0028345517157282
   6    -0.0034421976446173
   7    0.0029712722596228
   8    -0.00096060420428817
   9     0.011156581043817
  10    -0.0094695072779216
  11    0.0030659652513408
  12    -0.0096579173919042
  13     0.018915869920157
  14    0.00059747893167051
  15    -0.0010320481308035
  16    0.0023528087093248
  17    8.131812907231e-07
  18    0.0047131838601359
  19    -0.002605631350563
  20    -0.00073759810466955
  21    0.00015988093968712
  22    -0.0014870781155782
  23    0.0018449778538982
  24    -0.005920495362294
  25    0.00017266226802835
  26    9.9183243664331e-05
  27    -8.6916860745274e-05
  28    -0.00034191649596325
  29    0.00042694111187727
  30    -0.00028726641314526
  31    0.00083397344473637
  32    -0.010257856628946
  33    -0.021039058148863
  34    -0.029904112727444
  35     0.050304115005211
  36     0.095763352682684
  37    0.0069025444847318
  38     0.056245239834256
  39     0.093864731372694
  40    0.0030520101091383
  41    -0.00054555110405625
  42    0.00086886447323371
  43    0.00094514409264316
  44    0.0010347162277731
  45    0.0019884044932125
  46    0.00032039135329414
  47    -0.0010331964127532
  48    0.0039268501387772
  49    0.0093228955042481
  50    -0.007901016255209
  51    -0.0067505119364057
  52    -0.0051373340429489
  53    0.0062848138452136
  54     0.020998378828045
  55     0.016176042802325
  56    -0.019558383815238
  57     -0.01603439255725
  58    -0.012395159911619
  59       0.0217556435711
  60     0.036706495169099
  61     -0.28683297546376
  62     -0.30786416608632
  63      0.15460700720472
  64     -0.74796920535441
  65    0.0092932792727951
  66    -0.078516966311495
  67    -0.082559982358538
  68     0.038556635097318
  69     -0.19402543096507
  70    -0.00061761336498862
  71    -1.7495614630213e-05
  72    -0.00084979793344972
  73    0.0014596573406527
  74    -0.0013881280548925
  75    -0.00053753540169737
  76    0.0023550513297398
  77    -3.1928292873011e-05
  78    0.00020076454150427
  79    -0.00035417607254871
  80    0.00072973428267248
  81    -0.00047993254262766
  82    -0.001333102240552
  83    -0.00023801730174485
  84    -0.0008371118006647
  85    -0.0022070632894184
  86    -0.00034650217401667
  87    -0.00086231761046524
  88    -0.0040757403349964
  89    -0.0020752623287146
  90    -1.7061093270224e-05
  91    -3.7832581203832e-05
  92    -0.00013162738442456
  93    -8.8528517416121e-05
  94    -0.00019430423029527
  95    1.4387809933164e-05
  96    -9.6949344414858e-05
  97    -0.00017065191800803
  98    0.0024066997788969
  99    -0.00085408168250452
 100    -0.00093799822642704
 101    -0.00031307051922167
 102    -0.0014077657176789
 103    -0.0015850221095509
 104    -0.00074093093847745
 105    -0.0033085353702417
 106    -0.002414962328511
 107    0.0016242942833459
 108    8.0451174932058e-06
 109    -0.00020016286609191
 110    6.953819915131e-05
 111    9.6003596686703e-05
 112    -0.00029205684669826
 113    -0.00053380838366862
 114    0.0035502069822532
 115    -0.0054091388756244
 116    -0.0069170049305883
 117    0.0044239381508818
 118    0.0020921425860574
 119    -6.0718498017371e-06
 120    0.0079280409098901
 121    0.0036049309956793
 122    0.00017896239755276
 123     0.012136620144149
 124    0.0085311861457036
 125    -0.001817154526815
 126    -0.00045062046574332
 127    0.00010585119343815
 128    0.00025117172191207
 129    0.00072347348327424
 130    0.00086378603858121
 131    0.00078740490960417
 132    -0.005207518340306
 133     0.007779065068012
 134    0.0016675531567945
 135     0.021218414745096
 136    0.0056137638872769
 137    -0.0096465777148576
 138     0.035894856169163
 139    0.0093918758496584
 140    -0.016901678961357
 141     0.060302027483329
 142      0.01664431461893
 143    -0.025590985708785
 144    -0.00092759935212472
 145    0.0029103326581977
 146    0.00052735230652708
 147    -0.00083711606255994
 148    0.00082738519569122
 149    -0.0023871512971001
 150     0.015676401259662
 151    -0.021384609202925
 152    -0.015042873171205
 153    -0.010699096638653
 154    0.0017708422892931
 155    -0.025584554349395
 156    -0.018450844233508
 157    0.0034499405417407
 158     -0.04330042081728
 159    -0.030880401739343
 160    0.0060228521203407
 161    -0.075923654082872
 162    0.00046733732381021
 163    -0.00074862485094641
 164    0.0007552078759354
 165    -0.00024248601740736
 166    0.00073524026982514
 167    0.0040041873246903
 168    -0.026174155105674
 169     0.033227728916618
 170     0.031648729448432
 171    0.00087023201763131
 172     0.045576268737511
 173    0.00090647680717698
 174    0.0019162948158056
 175     0.077420971154715
 176    0.0013616910291021
 177     0.004202532356762
 178      0.13477879867449
 179    0.0046871262081756
 180    0.00033445875157687
 181    0.0010756511657419
 182    0.0023452563697617
 183    6.3051830256159e-05
 184    0.0014786231968718
 Sym= A
 Ene=               3
 Spin= Alpha
 Occup=    1.00000
   1    -0.00084330881270307
   2    0.0024760740510571
   3     -0.01142303777388
   4     0.011415853557797
   5    0.0034648171740571
   6    -0.0032027678285493
   7    -0.0022460699707115
   8    -0.00035315601597131
   9     0.010327689840241
  10    0.0071568336229598
  11    0.0011169541712638
  12    -0.008716029312306
  13    -0.014471725178164
  14    0.0041853839184459
  15    -0.0025487006355834
  16    0.0009915248775298
  17     0.000435408714945
  18     0.003078388882811
  19    0.0019055194480533
  20    -0.0013076616162201
  21    -0.00089138320133252
  22    0.0011706244677995
  23    0.00081931450133212
  24    0.0048590570645104
  25    0.00010138509633115
  26    0.00022050767830584
  27    0.00015408965798135
  28    -9.7078869415045e-05
  29    -0.00035231922176284
  30    -0.00031124208213119
  31    -0.0006373321620023
  32    -0.0071502555340225
  33    -0.015294810394475
  34    -0.018815773501087
  35     0.033591426368809
  36     -0.07449048619189
  37     0.028005024396684
  38     0.037891588606607
  39    -0.072621824544692
  40     0.025466412419078
  41    -0.00029780822428073
  42    0.0010472475766309
  43    -0.0012559362138996
  44    0.00051442342016529
  45    -0.0017268285563608
  46    -0.00097544154766415
  47    0.0028523105012554
  48    -0.013188586687336
  49     0.032258437769178
  50    -0.016178818317913
  51    -0.005234738926955
  52    0.0018944749449177
  53     0.006123165761177
  54     0.016292701133091
  55    -0.0061779465368489
  56    -0.019007221987413
  57     -0.01456520215287
  58    0.00021176921109389
  59     0.020016846624391
  60     -0.23790872470203
  61     -0.44309344096567
  62      -0.5824753792404
  63     -0.23015189145882
  64      0.34804684045149
  65    -0.062617296614333
  66     -0.11932954255077
  67     -0.15651895447027
  68    -0.062210999411375
  69     0.088992144975921
  70    -0.0011997252091984
  71    -0.0007594249090311
  72    -0.00055165077741579
  73    0.00056239187357798
  74    0.0019152362738487
  75    -2.0485992489236e-05
  76    -0.0014195562949167
  77    -0.00030601350299204
  78    0.0020233171964518
  79    -0.0026199696582141
  80    -0.0059606698845103
  81    0.0018642831612867
  82    -7.6160658095773e-05
  83    0.0017809540962324
  84    0.0034251530620416
  85    -0.00015558168718639
  86    0.0029266985496669
  87     0.004726764494275
  88    -0.0010823353856702
  89    0.0079392370144716
  90    -3.0329777333529e-06
  91    0.00055560350614494
  92    4.4224752475398e-05
  93    0.00027174570706014
  94    -0.00017491914913278
  95    -0.00020101006662199
  96    0.0013301895237491
  97    -0.0020624701081255
  98    -0.0021237270737425
  99    0.0017466342994977
 100    0.0002616181359361
 101    -0.00084508719312953
 102    0.0031571569435905
 103    0.00027457202608327
 104    -0.0013878024867216
 105    0.0047560637474283
 106     0.001774860485947
 107    -0.0030836217169982
 108    -0.00028264560598354
 109    -0.00019238394171722
 110    2.9951091184782e-05
 111    0.00031016550115286
 112    -8.948709063905e-05
 113    0.00017782772184929
 114    -0.0011993844700356
 115    0.0019667505030426
 116    0.0027483807738253
 117    -0.0023881165578264
 118    -0.00033593641542145
 119    -0.00067340604024264
 120    -0.0042775520318566
 121    -0.00050740632765711
 122    -0.0012292558253977
 123    -0.0061454366119691
 124    -0.0031759965206187
 125    -0.00092078492050174
 126    4.5519516686071e-05
 127    -0.00017105077747768
 128    -0.00014559353813903
 129    -0.00047130691800324
 130    -2.6074770127284e-05
 131    0.0025350789016733
 132    -0.016595927612867
 133     0.020118665794036
 134     0.019410475231814
 135     0.012420506268308
 136    -0.0097218455475747
 137    -0.023668255332148
 138     0.021215297756589
 139    -0.016797540622028
 140    -0.040609767462973
 141     0.035094074901627
 142    -0.028909188279891
 143    -0.070193853885003
 144    6.7282786190495e-05
 145    0.00098872495619119
 146    0.00018838808789444
 147    -0.0010535192436588
 148     0.001281748098988
 149    0.0012330790248237
 150    -0.008074224285054
 151    0.0094756249616595
 152     0.012725166068064
 153    -0.0032767980331444
 154    -0.023517391292595
 155    0.0060001220387323
 156    -0.005295000418812
 157    -0.040093872207099
 158      0.01043552474011
 159    -0.0068692342668414
 160    -0.066764106142303
 161     0.018346810291503
 162    0.00041082232119295
 163    0.0013819511334019
 164    0.00088846922233262
 165    0.0019969578505941
 166     0.001043549408125
 167    -0.0013408325016442
 168    0.0087503369232186
 169    -0.011641512367852
 170    -0.010605585464635
 171    0.0013791905242368
 172    -0.0090154550669229
 173    -0.029040855162445
 174    0.0022219087378745
 175    -0.015115949733534
 176    -0.048646845094069
 177    0.0037262163291682
 178    -0.028726650021674
 179    -0.083633545776766
 180    0.0014072169764311
 181    0.00058961028883199
 182    0.0014381473430861
 183    0.0010875016929639
 184    -0.0014292214669473