[Molden Format]
made by pyscf v[2.1.1]
[Atoms] (AU)
Fe   1   26     3.17068844873907     0.00098706064664     0.12237737881307
O   2   8     0.00000000000000     0.00000000000000    -0.89004350580623
Fe   3   26    -3.17068844873907    -0.00098706064664     0.12237737881307
Cl   4   17     3.53383895113107    -2.07485195383062     3.76228752659000
Cl   5   17     5.54152580550813    -1.85590924879884    -2.78672786652360
Cl   6   17     4.48169216485503     3.92976278472880    -0.95330240907949
Cl   7   17    -3.53383895113107     2.07485195383062     3.76228752659000
Cl   8   17    -5.54152580550813     1.85590924879884    -2.78672786652360
Cl   9   17    -4.48169216485503    -3.92976278472880    -0.95330240907949
[GTO]
1 0
 s    6 1.00
          60923.640643  0.0017552243692958
          9147.8893982   0.013449023284001
          2081.3505927   0.066678874640978
          587.55977067    0.23176348548844
           191.0904399    0.46945550248188
          65.732730112     0.3596824938678
 s    3 1.00
          127.25891928   -0.10723431835929
           14.83091301    0.62971616328466
          6.0653307408    0.44472317896179
 s    3 1.00
           10.44994371   -0.21694289195548
          1.7245228003    0.69457867408393
         0.71772177325    0.43298308896347
 s    1 1.00
        0.091449828308                   1
 s    1 1.00
        0.033706691021                   1
 p    5 1.00
          773.43750995  0.0091440529992506
          182.15149714   0.067887577136571
          57.547272758    0.26167978878504
          20.614988935    0.51088040113251
           7.634855789    0.33235475570224
 p    3 1.00
           3.871932799    0.33193859098144
          1.4924724132     0.5553666555499
         0.56061284958    0.23106034201617
 p    1 1.00
              0.134915                   1
 d    4 1.00
          38.968133419   0.033335938558743
          10.800067078    0.17766212505983
          3.6136457999      0.441281781625
          1.2129967888    0.57089200490673
 d    1 1.00
          0.3652439317                   1
 f    1 1.00
                 1.598                   1

2 0
 s    5 1.00
          2266.1767785  -0.0053893503921743
          340.87010191   -0.04023472138896
          77.363135167   -0.18008184205526
           21.47964494   -0.46828857657651
          6.6589433124   -0.44692617160187
 s    1 1.00
         0.80975975668                   1
 s    1 1.00
         0.25530772234                   1
 p    3 1.00
          17.721504317   0.062630248763161
           3.863550544    0.33331138482352
          1.0480920883    0.74148638308122
 p    1 1.00
         0.27641544411                   1
 d    1 1.00
                   1.2                   1

3 0
 s    6 1.00
          60923.640643  0.0017552243692958
          9147.8893982   0.013449023284001
          2081.3505927   0.066678874640978
          587.55977067    0.23176348548844
           191.0904399    0.46945550248188
          65.732730112     0.3596824938678
 s    3 1.00
          127.25891928   -0.10723431835929
           14.83091301    0.62971616328466
          6.0653307408    0.44472317896179
 s    3 1.00
           10.44994371   -0.21694289195548
          1.7245228003    0.69457867408393
         0.71772177325    0.43298308896347
 s    1 1.00
        0.091449828308                   1
 s    1 1.00
        0.033706691021                   1
 p    5 1.00
          773.43750995  0.0091440529992506
          182.15149714   0.067887577136571
          57.547272758    0.26167978878504
          20.614988935    0.51088040113251
           7.634855789    0.33235475570224
 p    3 1.00
           3.871932799    0.33193859098144
          1.4924724132     0.5553666555499
         0.56061284958    0.23106034201617
 p    1 1.00
              0.134915                   1
 d    4 1.00
          38.968133419   0.033335938558743
          10.800067078    0.17766212505983
          3.6136457999      0.441281781625
          1.2129967888    0.57089200490673
 d    1 1.00
          0.3652439317                   1
 f    1 1.00
                 1.598                   1

4 0
 s    5 1.00
          10449.827566  0.0054265953789407
          1571.7365221   0.040626378128836
          357.12065523    0.18359747852877
          100.25185935    0.47438948768198
          30.812727554    0.43735181104122
 s    3 1.00
          51.923789434  -0.092754154848099
          5.7045760975    0.56380825544207
          2.3508376809    0.50367044629712
 s    1 1.00
         0.44605124672                   1
 s    1 1.00
          0.1684885619                   1
 p    5 1.00
          307.66790569  -0.0088797025588865
          72.102015515  -0.064284071721237
          22.532680262   -0.24288739736006
          7.8991765444   -0.48340836369878
          2.8767268321   -0.38952563875509
 p    1 1.00
         0.77459363955                   1
 p    1 1.00
         0.21037699698                   1
 d    1 1.00
                  0.65                   1

5 0
 s    5 1.00
          10449.827566  0.0054265953789407
          1571.7365221   0.040626378128836
          357.12065523    0.18359747852877
          100.25185935    0.47438948768198
          30.812727554    0.43735181104122
 s    3 1.00
          51.923789434  -0.092754154848099
          5.7045760975    0.56380825544207
          2.3508376809    0.50367044629712
 s    1 1.00
         0.44605124672                   1
 s    1 1.00
          0.1684885619                   1
 p    5 1.00
          307.66790569  -0.0088797025588865
          72.102015515  -0.064284071721237
          22.532680262   -0.24288739736006
          7.8991765444   -0.48340836369878
          2.8767268321   -0.38952563875509
 p    1 1.00
         0.77459363955                   1
 p    1 1.00
         0.21037699698                   1
 d    1 1.00
                  0.65                   1

6 0
 s    5 1.00
          10449.827566  0.0054265953789407
          1571.7365221   0.040626378128836
          357.12065523    0.18359747852877
          100.25185935    0.47438948768198
          30.812727554    0.43735181104122
 s    3 1.00
          51.923789434  -0.092754154848099
          5.7045760975    0.56380825544207
          2.3508376809    0.50367044629712
 s    1 1.00
         0.44605124672                   1
 s    1 1.00
          0.1684885619                   1
 p    5 1.00
          307.66790569  -0.0088797025588865
          72.102015515  -0.064284071721237
          22.532680262   -0.24288739736006
          7.8991765444   -0.48340836369878
          2.8767268321   -0.38952563875509
 p    1 1.00
         0.77459363955                   1
 p    1 1.00
         0.21037699698                   1
 d    1 1.00
                  0.65                   1

7 0
 s    5 1.00
          10449.827566  0.0054265953789407
          1571.7365221   0.040626378128836
          357.12065523    0.18359747852877
          100.25185935    0.47438948768198
          30.812727554    0.43735181104122
 s    3 1.00
          51.923789434  -0.092754154848099
          5.7045760975    0.56380825544207
          2.3508376809    0.50367044629712
 s    1 1.00
         0.44605124672                   1
 s    1 1.00
          0.1684885619                   1
 p    5 1.00
          307.66790569  -0.0088797025588865
          72.102015515  -0.064284071721237
          22.532680262   -0.24288739736006
          7.8991765444   -0.48340836369878
          2.8767268321   -0.38952563875509
 p    1 1.00
         0.77459363955                   1
 p    1 1.00
         0.21037699698                   1
 d    1 1.00
                  0.65                   1

8 0
 s    5 1.00
          10449.827566  0.0054265953789407
          1571.7365221   0.040626378128836
          357.12065523    0.18359747852877
          100.25185935    0.47438948768198
          30.812727554    0.43735181104122
 s    3 1.00
          51.923789434  -0.092754154848099
          5.7045760975    0.56380825544207
          2.3508376809    0.50367044629712
 s    1 1.00
         0.44605124672                   1
 s    1 1.00
          0.1684885619                   1
 p    5 1.00
          307.66790569  -0.0088797025588865
          72.102015515  -0.064284071721237
          22.532680262   -0.24288739736006
          7.8991765444   -0.48340836369878
          2.8767268321   -0.38952563875509
 p    1 1.00
         0.77459363955                   1
 p    1 1.00
         0.21037699698                   1
 d    1 1.00
                  0.65                   1

9 0
 s    5 1.00
          10449.827566  0.0054265953789407
          1571.7365221   0.040626378128836
          357.12065523    0.18359747852877
          100.25185935    0.47438948768198
          30.812727554    0.43735181104122
 s    3 1.00
          51.923789434  -0.092754154848099
          5.7045760975    0.56380825544207
          2.3508376809    0.50367044629712
 s    1 1.00
         0.44605124672                   1
 s    1 1.00
          0.1684885619                   1
 p    5 1.00
          307.66790569  -0.0088797025588865
          72.102015515  -0.064284071721237
          22.532680262   -0.24288739736006
          7.8991765444   -0.48340836369878
          2.8767268321   -0.38952563875509
 p    1 1.00
         0.77459363955                   1
 p    1 1.00
         0.21037699698                   1
 d    1 1.00
                  0.65                   1

[5d]
[7f]
[9g]

[MO]
 Sym= A
 Ene=               0
 Spin= Alpha
 Occup=    1.00000
   1    0.0079636520296774
   2    -0.022173081214182
   3      0.11335117796212
   4    0.0041432840512804
   5    -0.0021846106236083
   6    0.0098635798196079
   7    -0.00027349632861225
   8    0.0046235228110253
   9    -0.033660842628511
  10    0.0008781253618169
  11    -0.015715545637783
  12     0.034792425628309
  13    -0.0019151459652407
  14     0.034122388864204
  15     0.010693043806192
  16    -0.033040491972499
  17    -0.0037648190315032
  18    -0.031034423207487
  19    -0.0011948977274398
  20    0.0069769962858001
  21    -0.023955618869911
  22    -0.0042036457827831
  23    -0.020349139219312
  24    -0.0008913195707195
  25    -0.0013178774797262
  26    -0.00067018988426271
  27    -0.0004847873647962
  28    0.0021456548460637
  29    6.1614433764271e-05
  30    0.0021810751133588
  31    -0.00016677140167633
  32       0.1780794076249
  33     -0.51292453436969
  34     -0.38629911445599
  35    -6.0800122004535e-17
  36    -6.6554918605203e-16
  37     0.047312451135552
  38    -2.89215549601e-17
  39    -5.786947361184e-16
  40     0.032077859104499
  41    0.0064115345633412
  42    -1.3938168798791e-18
  43    -1.4170035327266e-17
  44    -0.011682392229818
  45    0.00018215352101006
  46    0.0079636520296775
  47    -0.022173081214183
  48      0.11335117796212
  49    0.0041432840512807
  50    -0.0021846106236084
  51    -0.0098635798196079
  52    0.00027349632861222
  53    0.0046235228110253
  54     0.033660842628511
  55    -0.00087812536181682
  56    -0.015715545637783
  57     -0.03479242562831
  58    0.0019151459652405
  59     0.034122388864204
  60     0.010693043806192
  61     0.033040491972499
  62    0.0037648190315035
  63    -0.031034423207487
  64    -0.0011948977274402
  65    0.0069769962858002
  66     0.023955618869912
  67     0.004203645782783
  68    -0.020349139219312
  69    -0.00089131957071981
  70    -0.0013178774797262
  71    0.00067018988426271
  72    0.0004847873647962
  73    0.0021456548460637
  74    6.1614433764275e-05
  75    -0.0021810751133588
  76    0.00016677140167632
  77    0.0026464020929598
  78     -0.01794813631798
  79     0.036678294567585
  80     0.012697529179462
  81    0.0013849070384725
  82    0.0082282007714015
  83    -0.012812882094568
  84    0.0030232946657809
  85     0.016041116241652
  86    -0.024983291932623
  87    0.0018064141538573
  88     0.018071490956311
  89    -0.029930438157534
  90    0.0014517710886394
  91    0.00020057614536964
  92    -0.0017857869775542
  93    -0.00050593347679736
  94    -0.00021223347364059
  95     0.002250984875711
  96    -0.015097022478546
  97     0.029658673697694
  98      0.02203088735527
  99    -0.0053641475183469
 100    0.0054571525627292
 101    0.0098906824155546
 102    -0.0092282982166649
 103     0.010118138881992
 104     0.018471173598932
 105    -0.017801994502129
 106     0.016086176431676
 107     0.026049872015961
 108    0.0010145119444197
 109    -0.0018445859633533
 110     0.001615778059297
 111    -0.00037610188641288
 112    -0.001048601848372
 113     0.002273289889585
 114    -0.015269058824425
 115      0.02987374814042
 116     0.020535950948075
 117    -0.004533080839586
 118    -0.011448571269629
 119     0.003719960986337
 120    -0.0077988059964686
 121    -0.021377903548143
 122      0.00700369639307
 123    -0.015070599617572
 124    -0.031949654058687
 125    0.0079609374186293
 126    -0.00078937447842873
 127    -0.00058635758222231
 128    -0.0010594909701342
 129    -0.0020125913982742
 130    0.00081268498434582
 131    0.0026464020929598
 132     -0.01794813631798
 133     0.036678294567585
 134     0.012697529179463
 135    -0.0013849070384726
 136    -0.0082282007714016
 137    -0.012812882094568
 138    -0.003023294665781
 139    -0.016041116241653
 140    -0.024983291932623
 141    -0.0018064141538575
 142    -0.018071490956311
 143    -0.029930438157534
 144    0.0014517710886394
 145    -0.00020057614536963
 146    0.0017857869775542
 147    -0.00050593347679737
 148    -0.00021223347364058
 149     0.002250984875711
 150    -0.015097022478546
 151     0.029658673697694
 152      0.02203088735527
 153    0.0053641475183469
 154    -0.0054571525627291
 155    0.0098906824155547
 156    0.0092282982166651
 157    -0.010118138881992
 158     0.018471173598933
 159      0.01780199450213
 160    -0.016086176431676
 161     0.026049872015961
 162    0.0010145119444197
 163    0.0018445859633533
 164    -0.001615778059297
 165    -0.00037610188641287
 166    -0.001048601848372
 167     0.002273289889585
 168    -0.015269058824425
 169      0.02987374814042
 170     0.020535950948075
 171     0.004533080839586
 172     0.011448571269629
 173    0.0037199609863371
 174    0.0077988059964687
 175     0.021377903548143
 176    0.0070036963930701
 177     0.015070599617572
 178     0.031949654058687
 179    0.0079609374186295
 180    -0.00078937447842874
 181    0.00058635758222232
 182    0.0010594909701342
 183    -0.0020125913982742
 184    0.00081268498434584
 Sym= B
 Ene=               1
 Spin= Alpha
 Occup=    1.00000
   1    0.0045705740615697
   2    -0.012773915467202
   3     0.065053341383041
   4    -0.033860030402203
   5    0.0062236670908322
   6    0.0099674233398674
   7    -0.010404873433861
   8    0.0031316062270903
   9     -0.03410967174703
  10      0.03383761854075
  11     -0.01074672507794
  12     0.036873914821178
  13    -0.077439270998256
  14    0.0086096129307409
  15      0.01269593245601
  16    -0.040526764425581
  17     0.020414169908037
  18       -0.066558247028
  19      0.10586852768984
  20    0.0071156228790983
  21    -0.019337246357752
  22     0.013188967793104
  23     -0.03184545560325
  24     0.067925641977953
  25    -0.0011138313297957
  26    -0.00075829659631279
  27    0.00043857103588396
  28    0.0019000523908861
  29    -0.0018574691242817
  30    0.0016454714466735
  31    -0.0038349148895546
  32    -3.3911147375701e-16
  33    4.5165555298529e-16
  34    3.5559861481785e-16
  35     -0.22531783623141
  36     -0.50230528116442
  37    2.9798526082443e-15
  38     -0.18392019590078
  39     -0.43344557230582
  40    2.5820822228571e-15
  41    5.9475548753364e-17
  42    -0.0060082055095041
  43    -0.010349158581642
  44    2.1603294136785e-17
  45    -3.6701908336897e-19
  46    -0.0045705740615698
  47     0.012773915467202
  48    -0.065053341383042
  49     0.033860030402203
  50    -0.0062236670908325
  51    0.0099674233398676
  52    -0.010404873433861
  53    -0.0031316062270902
  54     -0.03410967174703
  55      0.03383761854075
  56      0.01074672507794
  57     0.036873914821178
  58    -0.077439270998256
  59    -0.0086096129307401
  60     -0.01269593245601
  61     -0.04052676442558
  62     0.020414169908037
  63     0.066558247028001
  64     -0.10586852768984
  65    -0.0071156228790985
  66    -0.019337246357752
  67     0.013188967793103
  68     0.031845455603251
  69    -0.067925641977953
  70    0.0011138313297957
  71    -0.00075829659631284
  72    0.00043857103588395
  73    -0.0019000523908861
  74    0.0018574691242817
  75    0.0016454714466735
  76    -0.0038349148895546
  77    -3.3188897794835e-05
  78    0.00029876997754244
  79     0.002088745710103
  80    -0.0082096980667163
  81    0.00047662407186342
  82    0.0033469393382125
  83    0.0003468499912593
  84    0.0014590030098679
  85    0.0051505944959169
  86    0.00033593634878508
  87    -0.0031394851037419
  88    0.0092635380780866
  89     0.010760707179455
  90    -0.00056478224359677
  91    0.0020588680726826
  92    0.0009367669204216
  93    0.00075031656676575
  94    -5.6420025634682e-05
  95    -0.00017770719430869
  96    0.0013402460253654
  97    0.0015532672023941
  98    -0.012908257064374
  99    0.00091633583464711
 100    0.0031293678081239
 101    -0.0012504872806333
 102    0.0023718103859625
 103    0.0047857692828316
 104    -0.0022792869201272
 105    0.0067718135788922
 106    0.0084155189632774
 107    -0.014601649870036
 108    -0.0016817847775486
 109    0.00047884436192566
 110    -0.00040026588748692
 111    -6.6652364826768e-05
 112    0.00074381210867593
 113    0.0036136361106103
 114    -0.024532750359568
 115     0.041154097487238
 116     0.036482622822451
 117     -0.01033023471005
 118    -0.016644565710136
 119    0.0048472744591436
 120    -0.019581150233158
 121    -0.032110248600026
 122    0.0086593964217528
 123    -0.030763630939234
 124      -0.0584581261229
 125      0.02000056422534
 126    0.0011644742711332
 127    -0.00067798377948887
 128    -0.0029010614571961
 129    -0.0054346987885666
 130    -0.0028656118438465
 131    3.3188897794936e-05
 132    -0.00029876997754218
 133    -0.0020887457101035
 134     0.008209698066716
 135    0.00047662407186337
 136    0.0033469393382127
 137    -0.00034684999125913
 138    0.0014590030098678
 139    0.0051505944959172
 140    -0.00033593634878473
 141    -0.0031394851037421
 142    0.0092635380780871
 143    -0.010760707179454
 144    0.00056478224359674
 145    0.0020588680726826
 146    0.00093676692042157
 147    -0.00075031656676572
 148    5.6420025634663e-05
 149    0.00017770719430872
 150    -0.0013402460253655
 151    -0.0015532672023941
 152     0.012908257064374
 153    0.00091633583464712
 154    0.0031293678081239
 155    0.0012504872806333
 156    0.0023718103859626
 157    0.0047857692828316
 158    0.0022792869201273
 159    0.0067718135788923
 160    0.0084155189632772
 161     0.014601649870036
 162    0.0016817847775486
 163    0.00047884436192568
 164    -0.00040026588748695
 165    6.6652364826747e-05
 166    -0.00074381210867593
 167     -0.00361363611061
 168     0.024532750359568
 169    -0.041154097487238
 170    -0.036482622822451
 171     -0.01033023471005
 172    -0.016644565710136
 173    -0.0048472744591437
 174    -0.019581150233158
 175    -0.032110248600026
 176    -0.0086593964217529
 177    -0.030763630939234
 178      -0.0584581261229
 179     -0.02000056422534
 180    -0.0011644742711332
 181    -0.00067798377948886
 182    -0.0029010614571961
 183    0.0054346987885666
 184    0.0028656118438465
 Sym= B
 Ene=               2
 Spin= Alpha
 Occup=    1.00000
   1    -0.0093820394425448
   2     0.026196900869871
   3     -0.13368690052772
   4     0.087882217957827
   5    -0.0037840053171923
   6    -0.021522464641224
   7    -0.0049900036139022
   8    -0.0078420405697565
   9     0.073592666454045
  10     0.016243414662482
  11     0.026457496495283
  12    -0.077754029663858
  13    -0.039042551972361
  14    -0.014194426512846
  15    -0.054563261647109
  16     0.095999664405098
  17     0.015927708736823
  18       0.1140808904983
  19     0.050564635620328
  20    -0.025397175881873
  21     0.045985489967727
  22    0.0091187001636768
  23     0.053924210275828
  24      0.03270576268016
  25    0.0023761648949291
  26    0.0012019508479949
  27    0.00077608092960312
  28    -0.0035384036744864
  29    -0.0010061307599753
  30    -0.0038385584932841
  31    -0.0015629886692509
  32    -3.1417862964782e-16
  33    2.1007323122337e-16
  34    2.0115063606717e-16
  35      0.47611504837324
  36     -0.23434825854661
  37    3.1502965465854e-15
  38       0.3925612539317
  39     -0.20272801980339
  40    2.7400637131007e-15
  41    6.6265367493128e-17
  42     0.012580626599858
  43    -0.004697398890231
  44    1.6214881839875e-17
  45    -3.430803252267e-19
  46    0.0093820394425449
  47    -0.026196900869871
  48      0.13368690052771
  49    -0.087882217957827
  50    0.0037840053171919
  51    -0.021522464641224
  52    -0.0049900036139022
  53    0.0078420405697566
  54     0.073592666454044
  55     0.016243414662482
  56    -0.026457496495283
  57    -0.077754029663857
  58    -0.039042551972361
  59     0.014194426512847
  60     0.054563261647108
  61     0.095999664405099
  62     0.015927708736823
  63      -0.1140808904983
  64    -0.050564635620328
  65     0.025397175881872
  66     0.045985489967727
  67    0.0091187001636766
  68    -0.053924210275827
  69     -0.03270576268016
  70    -0.0023761648949291
  71    0.0012019508479949
  72    0.00077608092960312
  73    0.0035384036744864
  74    0.0010061307599753
  75    -0.0038385584932841
  76    -0.0015629886692509
  77    -0.0023791026713793
  78     0.016022437982618
  79    -0.026527498622818
  80    -0.030021449768708
  81    0.0026023966012013
  82    -0.0050286286646221
  83     0.013816199720973
  84     0.004604713540386
  85    -0.0097440634713836
  86     0.025530019239192
  87     0.010617037447866
  88     -0.01548016172879
  89     0.045905814180324
  90    -0.0010329975930493
  91    0.0012700385685284
  92    0.0010847692447208
  93    0.0010041509377742
  94    0.00018801038812466
  95    -0.0029996898354286
  96     0.020340883646308
  97    -0.037992949805417
  98    -0.020211264870431
  99      0.01213607010082
 100    -0.006328120273815
 101    -0.011109884722415
 102     0.022887779271792
 103    -0.013281631226032
 104    -0.021685091813111
 105     0.034631478453511
 106    -0.013207948781689
 107    -0.030585006051419
 108    -0.0022976841899206
 109    0.00064900760078052
 110    -0.00066575799277791
 111    0.0022204620123282
 112    -0.0001247250677323
 113    -0.0010767771137986
 114    0.0071378018779522
 115     -0.01524212440482
 116    -0.0028911262616168
 117    0.0033596902706195
 118    0.0076497006567377
 119    0.00039875421127439
 120    0.0051847106335089
 121     0.014482365284178
 122    0.00059024644902658
 123     0.013162729944201
 124     0.012095574919455
 125    0.0047044741106027
 126    -0.00026005293945839
 127    0.00044849568768521
 128    -0.00061786720012654
 129    -0.0006481904482146
 130    0.00045157610773274
 131     0.002379102671379
 132    -0.016022437982618
 133     0.026527498622817
 134     0.030021449768707
 135    0.0026023966012012
 136    -0.005028628664622
 137    -0.013816199720973
 138    0.0046047135403858
 139    -0.0097440634713833
 140    -0.025530019239191
 141     0.010617037447865
 142     -0.01548016172879
 143    -0.045905814180323
 144    0.0010329975930493
 145    0.0012700385685284
 146    0.0010847692447208
 147    -0.0010041509377742
 148    -0.00018801038812468
 149    0.0029996898354286
 150    -0.020340883646308
 151     0.037992949805417
 152     0.020211264870431
 153      0.01213607010082
 154    -0.006328120273815
 155     0.011109884722415
 156     0.022887779271792
 157    -0.013281631226032
 158     0.021685091813111
 159     0.034631478453511
 160    -0.013207948781689
 161     0.030585006051419
 162    0.0022976841899206
 163    0.00064900760078053
 164    -0.00066575799277793
 165    -0.0022204620123282
 166    0.0001247250677323
 167    0.0010767771137987
 168    -0.0071378018779521
 169      0.01524212440482
 170    0.0028911262616169
 171    0.0033596902706195
 172    0.0076497006567376
 173    -0.00039875421127446
 174    0.0051847106335088
 175     0.014482365284178
 176    -0.00059024644902668
 177     0.013162729944201
 178     0.012095574919455
 179    -0.0047044741106029
 180    0.00026005293945839
 181    0.00044849568768522
 182    -0.00061786720012654
 183    0.0006481904482146
 184    -0.00045157610773276
 Sym= A
 Ene=               3
 Spin= Alpha
 Occup=    1.00000
   1    0.0041503817362755
   2    -0.011640761198062
   3      0.05885083892673
   4    -0.048473072244051
   5     0.030244590566479
   6     0.012034692049224
   7    -0.00043542771877006
   8    -0.0075433660894691
   9    -0.040530514413273
  10    0.0013143367223761
  11     0.024160959573173
  12      0.05591351169867
  13    0.0021095431302174
  14    -0.074620834360773
  15      0.07821962971012
  16     0.063529492297067
  17    -0.018889088529647
  18    -0.080565320099399
  19    0.0052244164499729
  20      0.04437717694675
  21     0.047292780767086
  22    -0.0087298082326319
  23    -0.043317468605559
  24    0.0028571653659982
  25    0.00088591229012858
  26    -0.0036701200852418
  27    -0.00042102113091676
  28    -0.0014816183744093
  29    -0.00024199216580945
  30    0.0025125949519485
  31    5.4066754885997e-05
  32     0.029169587227704
  33    0.0061766152909684
  34     0.006054910885042
  35    1.9126213469312e-15
  36    -4.1214677870824e-15
  37     -0.54258113593294
  38    1.5524349365972e-15
  39    -3.5852025695102e-15
  40     -0.46807770530294
  41    -0.011837798285676
  42    5.1785082762976e-17
  43    -8.4364571434238e-17
  44    -0.0016551267788573
  45    -7.554062538751e-05
  46    0.0041503817362754
  47    -0.011640761198062
  48     0.058850838926729
  49    -0.048473072244053
  50     0.030244590566479
  51    -0.012034692049224
  52    0.00043542771876989
  53    -0.0075433660894691
  54     0.040530514413273
  55    -0.0013143367223756
  56     0.024160959573173
  57     -0.05591351169867
  58    -0.0021095431302187
  59    -0.074620834360773
  60     0.078219629710121
  61    -0.063529492297066
  62     0.018889088529647
  63      -0.0805653200994
  64    0.0052244164499714
  65     0.044377176946751
  66    -0.047292780767086
  67    0.0087298082326329
  68    -0.043317468605559
  69    0.0028571653659972
  70    0.00088591229012856
  71    0.0036701200852418
  72    0.00042102113091677
  73    -0.0014816183744093
  74    -0.00024199216580941
  75    -0.0025125949519485
  76    -5.406675488606e-05
  77    0.0036079481594466
  78    -0.024849061159918
  79     0.044254690726254
  80     0.031777414149436
  81    -0.0054750809552572
  82     0.011203092276546
  83    -0.015966384583306
  84    -0.010258933152172
  85     0.021416149135067
  86    -0.032373391413192
  87      -0.0149520222971
  88     0.042099369655322
  89    -0.055451235335903
  90    0.0025233847130064
  91    -0.0027267849385089
  92    -0.0027858399171442
  93    -0.0028652243737694
  94    0.0016878207101341
  95    -0.0015526732403357
  96     0.010789231077059
  97    -0.012292104048576
  98    -0.035957469481486
  99    0.0045338461825762
 100    -0.0035280423923269
 101    -0.0032528133616352
 102     0.010165222964456
 103    -0.0071399363240302
 104    -0.0080776102467904
 105     0.019163425123589
 106    -0.021154520866129
 107    -0.020963937227042
 108    -0.0022737764260069
 109    0.0015845534834756
 110    -0.0024367552752727
 111    0.0019388224034047
 112    -3.4316844572234e-05
 113    0.00063211913922564
 114    -0.0044112815359883
 115     0.012827265547238
 116    -0.011436641549437
 117    -0.0030775556265747
 118    -0.0034041802978768
 119    0.0039582311345184
 120    -0.0052956513816295
 121    -0.0073775383456405
 122    0.0066264818933118
 123    -0.010306090081811
 124    -0.00037478745176943
 125     0.012991782093166
 126    0.00033200859240744
 127    0.0010802484156425
 128    0.00051051703811601
 129    0.00058642673496376
 130    0.0011647287012007
 131    0.0036079481594465
 132    -0.024849061159918
 133     0.044254690726254
 134     0.031777414149436
 135    0.0054750809552573
 136    -0.011203092276545
 137    -0.015966384583306
 138     0.010258933152172
 139    -0.021416149135067
 140    -0.032373391413192
 141     0.014952022297101
 142    -0.042099369655322
 143    -0.055451235335903
 144    0.0025233847130063
 145     0.002726784938509
 146    0.0027858399171442
 147    -0.0028652243737694
 148    0.0016878207101341
 149    -0.0015526732403357
 150     0.010789231077059
 151    -0.012292104048576
 152    -0.035957469481486
 153    -0.0045338461825762
 154    0.0035280423923269
 155    -0.0032528133616351
 156    -0.010165222964455
 157    0.0071399363240302
 158    -0.0080776102467903
 159    -0.019163425123589
 160     0.021154520866129
 161    -0.020963937227042
 162    -0.0022737764260069
 163    -0.0015845534834756
 164    0.0024367552752727
 165    0.0019388224034047
 166    -3.4316844572223e-05
 167    0.00063211913922557
 168    -0.0044112815359878
 169     0.012827265547237
 170    -0.011436641549438
 171    0.0030775556265745
 172    0.0034041802978765
 173    0.0039582311345183
 174    0.0052956513816292
 175    0.0073775383456399
 176    0.0066264818933116
 177     0.010306090081811
 178    0.00037478745176846
 179     0.012991782093166
 180    0.00033200859240744
 181    -0.0010802484156425
 182    -0.00051051703811607
 183    0.00058642673496386
 184    0.0011647287012007
