[Molden Format]
made by pyscf v[2.1.1]
[Atoms] (AU)
Cr   1   24     1.56143912275337    -2.46507591990239    -1.82404491365355
Cr   2   24    -1.56139565905251     2.46513072196000     1.82399011159594
O   3   8     0.00002078698737     0.00002834589187    -0.00002645616574
N   4   7     5.12832174930954    -1.10581670549011    -0.60767356069801
H   5   1     6.65216855026694    -1.66292686427314    -1.66487895135981
H   6   1     5.63710405218294    -1.59213394419468     1.18765885421890
H   7   1     5.20084187906585     0.81566059741989    -0.65509245834172
N   8   7     1.71230729763415    -0.02251608677419    -4.99594076510539
H   9   1     0.29795878723855     1.27247165241550    -4.90823668593820
H   10   1     1.50271021425414    -0.85583806455427    -6.73026148236459
H   11   1     3.34039895052705     0.99863710888315    -5.18656310846864
N   12   7     1.41057094787259    -4.90763575303059     1.34785282752440
H   13   1     1.64193389675534    -6.79355407945465     0.97314659318890
H   14   1    -0.29048681014202    -4.81040367474334     2.24006056107205
H   15   1     2.72468082571676    -4.56691435331926     2.71738081369757
N   16   7    -2.00544350380280    -3.82433513431467    -3.04041437688297
H   17   1    -2.87205678671934    -5.05516478184926    -1.83221042023780
H   18   1    -2.03637832046193    -4.76397121413665    -4.73247136936628
H   19   1    -3.24475802163669    -2.37551046050250    -3.28123540501917
N   20   7     3.37923471211299    -5.33493873459111    -3.94755661599306
H   21   1     4.17102617885350    -4.76109883042731    -5.61685374703210
H   22   1     2.26176595533881    -6.82326057413281    -4.47610923358166
H   23   1     4.85383336053810    -6.19899521806112    -3.03922195969837
N   24   7    -5.12827828560868     1.10587339727385     0.60762064836653
H   25   1    -5.15408816501799    -0.81544705836782     0.54662784797006
H   26   1    -5.69743166898356     1.68113626520945    -1.14337690194197
H   27   1    -6.63528195761783     1.56841410187914     1.73267665553083
N   28   7    -1.71226383393328     0.02257088883181     4.99588785277390
H   29   1    -1.62991523860311     0.86667375415253     6.73575491620870
H   30   1    -0.22416876152653    -1.19157625647512     4.98456461383551
H   31   1    -3.28782110056328    -1.08746368536834     5.11339858210385
N   32   7     2.00548696750367     3.82438993637228     3.04035957482536
H   33   1     2.05186651577887     4.68410571893416     4.77402266739321
H   34   1     2.83712330958063     5.12208376337235     1.87805706574587
H   35   1     3.26582090902109     2.38241174030942     3.19051154350492
N   36   7    -1.41052748417173     4.90769055508820    -1.34790762958202
H   37   1    -1.75003190025884     6.78104976168840    -0.99229329828299
H   38   1    -2.65834387984003     4.49309409198925    -2.75785496783350
H   39   1     0.32278033988471     4.89894112313146    -2.18344058692784
N   40   7    -3.37919124841212     5.33499353664873     3.94750181393545
H   41   1    -2.26357064378777     6.83195331430581     4.45515784003860
H   42   1    -4.15358022727151     4.76963661305810     5.62761006813313
H   43   1    -4.86681766873998     6.18449345978121     3.04686590187224
[GTO]
1 0
 s    6 1.00
          51528.086349  0.0017695545768669
          7737.2103487   0.013556436258096
           1760.374847   0.067162645785071
          496.87706544    0.23295905918518
          161.46520598    0.47040576982722
          55.466352268    0.35733072606876
 s    3 1.00
          107.54732999   -0.10605255446629
          12.408671897    0.62543981484169
          5.0423628826    0.44878820793655
 s    3 1.00
          8.5461640165   -0.21819012081133
          1.3900441221    0.70422525667731
         0.56066602876    0.42488555412558
 s    1 1.00
        0.071483705972                   1
 s    1 1.00
        0.028250687604                   1
 p    5 1.00
          640.48536096  0.0093555063746755
          150.69711194   0.068993338492216
          47.503755296     0.2634118959318
          16.934120165    0.51034501651775
           6.240968059    0.33195512953954
 p    3 1.00
          3.0885463206    0.32917682676976
          1.1791047769    0.55491385190365
         0.43369774432    0.23818412855984
 p    1 1.00
              0.120675                   1
 d    4 1.00
          27.559479426   0.036950140313562
          7.4687020327    0.18821519783039
          2.4345903574    0.44641244239929
         0.78244754808     0.5681617303244
 d    1 1.00
         0.21995774311                   1
 f    1 1.00
                 1.147                   1

2 0
 s    6 1.00
          51528.086349  0.0017695545768669
          7737.2103487   0.013556436258096
           1760.374847   0.067162645785071
          496.87706544    0.23295905918518
          161.46520598    0.47040576982722
          55.466352268    0.35733072606876
 s    3 1.00
          107.54732999   -0.10605255446629
          12.408671897    0.62543981484169
          5.0423628826    0.44878820793655
 s    3 1.00
          8.5461640165   -0.21819012081133
          1.3900441221    0.70422525667731
         0.56066602876    0.42488555412558
 s    1 1.00
        0.071483705972                   1
 s    1 1.00
        0.028250687604                   1
 p    5 1.00
          640.48536096  0.0093555063746755
          150.69711194   0.068993338492216
          47.503755296     0.2634118959318
          16.934120165    0.51034501651775
           6.240968059    0.33195512953954
 p    3 1.00
          3.0885463206    0.32917682676976
          1.1791047769    0.55491385190365
         0.43369774432    0.23818412855984
 p    1 1.00
              0.120675                   1
 d    4 1.00
          27.559479426   0.036950140313562
          7.4687020327    0.18821519783039
          2.4345903574    0.44641244239929
         0.78244754808     0.5681617303244
 d    1 1.00
         0.21995774311                   1
 f    1 1.00
                 1.147                   1

3 0
 s    5 1.00
          2266.1767785  -0.0053893503921743
          340.87010191   -0.04023472138896
          77.363135167   -0.18008184205526
           21.47964494   -0.46828857657651
          6.6589433124   -0.44692617160187
 s    1 1.00
         0.80975975668                   1
 s    1 1.00
         0.25530772234                   1
 p    3 1.00
          17.721504317   0.062630248763161
           3.863550544    0.33331138482352
          1.0480920883    0.74148638308122
 p    1 1.00
         0.27641544411                   1
 d    1 1.00
                   1.2                   1

4 0
 s    5 1.00
          1712.8415853  -0.0054477995804909
          257.64812677  -0.040627174632423
          58.458245853   -0.18111962250584
          16.198367905   -0.46843975563173
          5.0052600809   -0.44616846289231
 s    1 1.00
         0.58731856571                   1
 s    1 1.00
         0.18764592253                   1
 p    3 1.00
          13.571470233  -0.058848116969522
          2.9257372874   -0.32024624762471
         0.79927750754   -0.75328226520436
 p    1 1.00
         0.21954348034                   1
 d    1 1.00
                     1                   1

5 0
 s    3 1.00
             13.010701   0.033485484812989
             1.9622572    0.23472187088125
            0.44453796    0.81377028525955
 s    1 1.00
            0.12194962                   1
 p    1 1.00
                   0.8                   1

6 0
 s    3 1.00
             13.010701   0.033485484812989
             1.9622572    0.23472187088125
            0.44453796    0.81377028525955
 s    1 1.00
            0.12194962                   1
 p    1 1.00
                   0.8                   1

7 0
 s    3 1.00
             13.010701   0.033485484812989
             1.9622572    0.23472187088125
            0.44453796    0.81377028525955
 s    1 1.00
            0.12194962                   1
 p    1 1.00
                   0.8                   1

8 0
 s    5 1.00
          1712.8415853  -0.0054477995804909
          257.64812677  -0.040627174632423
          58.458245853   -0.18111962250584
          16.198367905   -0.46843975563173
          5.0052600809   -0.44616846289231
 s    1 1.00
         0.58731856571                   1
 s    1 1.00
         0.18764592253                   1
 p    3 1.00
          13.571470233  -0.058848116969522
          2.9257372874   -0.32024624762471
         0.79927750754   -0.75328226520436
 p    1 1.00
         0.21954348034                   1
 d    1 1.00
                     1                   1

9 0
 s    3 1.00
             13.010701   0.033485484812989
             1.9622572    0.23472187088125
            0.44453796    0.81377028525955
 s    1 1.00
            0.12194962                   1
 p    1 1.00
                   0.8                   1

10 0
 s    3 1.00
             13.010701   0.033485484812989
             1.9622572    0.23472187088125
            0.44453796    0.81377028525955
 s    1 1.00
            0.12194962                   1
 p    1 1.00
                   0.8                   1

11 0
 s    3 1.00
             13.010701   0.033485484812989
             1.9622572    0.23472187088125
            0.44453796    0.81377028525955
 s    1 1.00
            0.12194962                   1
 p    1 1.00
                   0.8                   1

12 0
 s    5 1.00
          1712.8415853  -0.0054477995804909
          257.64812677  -0.040627174632423
          58.458245853   -0.18111962250584
          16.198367905   -0.46843975563173
          5.0052600809   -0.44616846289231
 s    1 1.00
         0.58731856571                   1
 s    1 1.00
         0.18764592253                   1
 p    3 1.00
          13.571470233  -0.058848116969522
          2.9257372874   -0.32024624762471
         0.79927750754   -0.75328226520436
 p    1 1.00
         0.21954348034                   1
 d    1 1.00
                     1                   1

13 0
 s    3 1.00
             13.010701   0.033485484812989
             1.9622572    0.23472187088125
            0.44453796    0.81377028525955
 s    1 1.00
            0.12194962                   1
 p    1 1.00
                   0.8                   1

14 0
 s    3 1.00
             13.010701   0.033485484812989
             1.9622572    0.23472187088125
            0.44453796    0.81377028525955
 s    1 1.00
            0.12194962                   1
 p    1 1.00
                   0.8                   1

15 0
 s    3 1.00
             13.010701   0.033485484812989
             1.9622572    0.23472187088125
            0.44453796    0.81377028525955
 s    1 1.00
            0.12194962                   1
 p    1 1.00
                   0.8                   1

16 0
 s    5 1.00
          1712.8415853  -0.0054477995804909
          257.64812677  -0.040627174632423
          58.458245853   -0.18111962250584
          16.198367905   -0.46843975563173
          5.0052600809   -0.44616846289231
 s    1 1.00
         0.58731856571                   1
 s    1 1.00
         0.18764592253                   1
 p    3 1.00
          13.571470233  -0.058848116969522
          2.9257372874   -0.32024624762471
         0.79927750754   -0.75328226520436
 p    1 1.00
         0.21954348034                   1
 d    1 1.00
                     1                   1

17 0
 s    3 1.00
             13.010701   0.033485484812989
             1.9622572    0.23472187088125
            0.44453796    0.81377028525955
 s    1 1.00
            0.12194962                   1
 p    1 1.00
                   0.8                   1

18 0
 s    3 1.00
             13.010701   0.033485484812989
             1.9622572    0.23472187088125
            0.44453796    0.81377028525955
 s    1 1.00
            0.12194962                   1
 p    1 1.00
                   0.8                   1

19 0
 s    3 1.00
             13.010701   0.033485484812989
             1.9622572    0.23472187088125
            0.44453796    0.81377028525955
 s    1 1.00
            0.12194962                   1
 p    1 1.00
                   0.8                   1

20 0
 s    5 1.00
          1712.8415853  -0.0054477995804909
          257.64812677  -0.040627174632423
          58.458245853   -0.18111962250584
          16.198367905   -0.46843975563173
          5.0052600809   -0.44616846289231
 s    1 1.00
         0.58731856571                   1
 s    1 1.00
         0.18764592253                   1
 p    3 1.00
          13.571470233  -0.058848116969522
          2.9257372874   -0.32024624762471
         0.79927750754   -0.75328226520436
 p    1 1.00
         0.21954348034                   1
 d    1 1.00
                     1                   1

21 0
 s    3 1.00
             13.010701   0.033485484812989
             1.9622572    0.23472187088125
            0.44453796    0.81377028525955
 s    1 1.00
            0.12194962                   1
 p    1 1.00
                   0.8                   1

22 0
 s    3 1.00
             13.010701   0.033485484812989
             1.9622572    0.23472187088125
            0.44453796    0.81377028525955
 s    1 1.00
            0.12194962                   1
 p    1 1.00
                   0.8                   1

23 0
 s    3 1.00
             13.010701   0.033485484812989
             1.9622572    0.23472187088125
            0.44453796    0.81377028525955
 s    1 1.00
            0.12194962                   1
 p    1 1.00
                   0.8                   1

24 0
 s    5 1.00
          1712.8415853  -0.0054477995804909
          257.64812677  -0.040627174632423
          58.458245853   -0.18111962250584
          16.198367905   -0.46843975563173
          5.0052600809   -0.44616846289231
 s    1 1.00
         0.58731856571                   1
 s    1 1.00
         0.18764592253                   1
 p    3 1.00
          13.571470233  -0.058848116969522
          2.9257372874   -0.32024624762471
         0.79927750754   -0.75328226520436
 p    1 1.00
         0.21954348034                   1
 d    1 1.00
                     1                   1

25 0
 s    3 1.00
             13.010701   0.033485484812989
             1.9622572    0.23472187088125
            0.44453796    0.81377028525955
 s    1 1.00
            0.12194962                   1
 p    1 1.00
                   0.8                   1

26 0
 s    3 1.00
             13.010701   0.033485484812989
             1.9622572    0.23472187088125
            0.44453796    0.81377028525955
 s    1 1.00
            0.12194962                   1
 p    1 1.00
                   0.8                   1

27 0
 s    3 1.00
             13.010701   0.033485484812989
             1.9622572    0.23472187088125
            0.44453796    0.81377028525955
 s    1 1.00
            0.12194962                   1
 p    1 1.00
                   0.8                   1

28 0
 s    5 1.00
          1712.8415853  -0.0054477995804909
          257.64812677  -0.040627174632423
          58.458245853   -0.18111962250584
          16.198367905   -0.46843975563173
          5.0052600809   -0.44616846289231
 s    1 1.00
         0.58731856571                   1
 s    1 1.00
         0.18764592253                   1
 p    3 1.00
          13.571470233  -0.058848116969522
          2.9257372874   -0.32024624762471
         0.79927750754   -0.75328226520436
 p    1 1.00
         0.21954348034                   1
 d    1 1.00
                     1                   1

29 0
 s    3 1.00
             13.010701   0.033485484812989
             1.9622572    0.23472187088125
            0.44453796    0.81377028525955
 s    1 1.00
            0.12194962                   1
 p    1 1.00
                   0.8                   1

30 0
 s    3 1.00
             13.010701   0.033485484812989
             1.9622572    0.23472187088125
            0.44453796    0.81377028525955
 s    1 1.00
            0.12194962                   1
 p    1 1.00
                   0.8                   1

31 0
 s    3 1.00
             13.010701   0.033485484812989
             1.9622572    0.23472187088125
            0.44453796    0.81377028525955
 s    1 1.00
            0.12194962                   1
 p    1 1.00
                   0.8                   1

32 0
 s    5 1.00
          1712.8415853  -0.0054477995804909
          257.64812677  -0.040627174632423
          58.458245853   -0.18111962250584
          16.198367905   -0.46843975563173
          5.0052600809   -0.44616846289231
 s    1 1.00
         0.58731856571                   1
 s    1 1.00
         0.18764592253                   1
 p    3 1.00
          13.571470233  -0.058848116969522
          2.9257372874   -0.32024624762471
         0.79927750754   -0.75328226520436
 p    1 1.00
         0.21954348034                   1
 d    1 1.00
                     1                   1

33 0
 s    3 1.00
             13.010701   0.033485484812989
             1.9622572    0.23472187088125
            0.44453796    0.81377028525955
 s    1 1.00
            0.12194962                   1
 p    1 1.00
                   0.8                   1

34 0
 s    3 1.00
             13.010701   0.033485484812989
             1.9622572    0.23472187088125
            0.44453796    0.81377028525955
 s    1 1.00
            0.12194962                   1
 p    1 1.00
                   0.8                   1

35 0
 s    3 1.00
             13.010701   0.033485484812989
             1.9622572    0.23472187088125
            0.44453796    0.81377028525955
 s    1 1.00
            0.12194962                   1
 p    1 1.00
                   0.8                   1

36 0
 s    5 1.00
          1712.8415853  -0.0054477995804909
          257.64812677  -0.040627174632423
          58.458245853   -0.18111962250584
          16.198367905   -0.46843975563173
          5.0052600809   -0.44616846289231
 s    1 1.00
         0.58731856571                   1
 s    1 1.00
         0.18764592253                   1
 p    3 1.00
          13.571470233  -0.058848116969522
          2.9257372874   -0.32024624762471
         0.79927750754   -0.75328226520436
 p    1 1.00
         0.21954348034                   1
 d    1 1.00
                     1                   1

37 0
 s    3 1.00
             13.010701   0.033485484812989
             1.9622572    0.23472187088125
            0.44453796    0.81377028525955
 s    1 1.00
            0.12194962                   1
 p    1 1.00
                   0.8                   1

38 0
 s    3 1.00
             13.010701   0.033485484812989
             1.9622572    0.23472187088125
            0.44453796    0.81377028525955
 s    1 1.00
            0.12194962                   1
 p    1 1.00
                   0.8                   1

39 0
 s    3 1.00
             13.010701   0.033485484812989
             1.9622572    0.23472187088125
            0.44453796    0.81377028525955
 s    1 1.00
            0.12194962                   1
 p    1 1.00
                   0.8                   1

40 0
 s    5 1.00
          1712.8415853  -0.0054477995804909
          257.64812677  -0.040627174632423
          58.458245853   -0.18111962250584
          16.198367905   -0.46843975563173
          5.0052600809   -0.44616846289231
 s    1 1.00
         0.58731856571                   1
 s    1 1.00
         0.18764592253                   1
 p    3 1.00
          13.571470233  -0.058848116969522
          2.9257372874   -0.32024624762471
         0.79927750754   -0.75328226520436
 p    1 1.00
         0.21954348034                   1
 d    1 1.00
                     1                   1

41 0
 s    3 1.00
             13.010701   0.033485484812989
             1.9622572    0.23472187088125
            0.44453796    0.81377028525955
 s    1 1.00
            0.12194962                   1
 p    1 1.00
                   0.8                   1

42 0
 s    3 1.00
             13.010701   0.033485484812989
             1.9622572    0.23472187088125
            0.44453796    0.81377028525955
 s    1 1.00
            0.12194962                   1
 p    1 1.00
                   0.8                   1

43 0
 s    3 1.00
             13.010701   0.033485484812989
             1.9622572    0.23472187088125
            0.44453796    0.81377028525955
 s    1 1.00
            0.12194962                   1
 p    1 1.00
                   0.8                   1

[5d]
[7f]
[9g]

[MO]
 Sym= A
 Ene=               0
 Spin= Alpha
 Occup=    1.00000
   1    -1.1473439387245e-05
   2    3.038328081268e-05
   3    -0.00017007429702005
   4    0.00037587248903577
   5    0.00031168471793202
   6    0.00020643739212466
   7    -5.6581310789085e-05
   8    0.00025035738675766
   9    -0.00067185488873921
  10    0.00018517878216126
  11    -0.00081327203359387
  12     0.001035809236509
  13    -0.00034634247497607
  14    0.0011701803214795
  15     -0.38111726851695
  16     -0.63589094875915
  17    -0.076299007336503
  18     -0.15878658969027
  19      0.51063774773167
  20    -0.080935411493401
  21     -0.13507024784378
  22    -0.016213138947549
  23    -0.033785446891011
  24      0.10857115728981
  25    0.00098659011558886
  26    0.00085766182717689
  27    0.00065796524010212
  28    -0.00054541607434716
  29    0.00032092340381375
  30    0.00080563458946055
  31    0.0009371970976115
  32    1.8443714242782e-06
  33    -4.2687272730157e-06
  34    3.025305455322e-05
  35    -0.00012318993442562
  36    -0.00010445984859681
  37    3.7469946289523e-06
  38    3.9728885494566e-07
  39    1.2950355759905e-05
  40    -1.3516236363183e-05
  41    -1.6065867855728e-06
  42    -4.5039885185667e-05
  43    4.3970387441992e-05
  44    2.0051792634136e-05
  45    0.00013416928769318
  46    0.00011485526090995
  47    0.00015393258419493
  48    1.8412114902047e-05
  49    3.8161709680296e-05
  50    -8.7528021563921e-05
  51    -0.00014341329658367
  52    -0.00011755528967489
  53    -6.5895067885364e-05
  54    -1.7111334664045e-05
  55    5.8449253575339e-05
  56    8.3577512935401e-06
  57    2.0410460775723e-06
  58    1.2989780872858e-05
  59    -5.0134020307541e-06
  60    4.2853491295934e-07
  61    1.2993823516759e-06
  62    1.317917088187e-06
  63    -1.4389480054345e-05
  64    -3.2603823582129e-05
  65    2.4146977698147e-06
  66    0.00047923084835079
  67    -0.00023324390131051
  68    0.00071854435145757
  69    0.00023531816268598
  70    -0.0001860973948656
  71    0.00040754718667988
  72    -0.0004258429103373
  73    -0.00069313118716612
  74    -9.3742981041259e-05
  75    -0.00017227942226734
  76    0.00055757773107652
  77    -2.9398045081876e-06
  78    -2.6137041075805e-05
  79    0.00049007673247834
  80    0.0013304400180667
  81     0.012700608308541
  82    -0.015739770253727
  83    -0.0015525366116438
  84    -0.0082339185452935
  85     0.011264560253943
  86    0.0025782474124245
  87    0.0032602690196148
  88    -4.403260520297e-05
  89    0.0010227187800595
  90    -0.0021900867442424
  91    -0.0077390150519872
  92    -0.0030963051429371
  93    0.00052681891020564
  94    -0.00087865227017685
  95      0.00024958696532
  96     0.024483883998085
  97     0.011579881694499
  98    -0.00062613767173207
  99    7.8915943658364e-05
 100    -0.0015293287628746
 101    -0.017444554970925
 102    -0.0095358996728181
 103    -5.4122561206924e-05
 104    0.0014269012259268
 105    0.00067332536596405
 106    4.7651369645386e-06
 107    8.1699692303341e-05
 108    -0.00063916341540938
 109     0.019190089086379
 110    0.0069062159516288
 111    0.0069075709896796
 112    -0.012894931372024
 113    -0.005332657899924
 114    -0.0055240007831565
 115    0.0022331102278427
 116    0.0029106806917977
 117    0.0007398064040164
 118    0.00033225945121064
 119    -0.0031170415823104
 120     0.011871389531829
 121    0.0066023927115585
 122    0.00018017057660621
 123    -0.0012658562263706
 124    -0.0004364340984642
 125      0.01465044143416
 126    0.0061610223326914
 127    -0.00076745702266328
 128    0.00047280492921025
 129    0.0010128227507111
 130    -0.025859602049775
 131      -0.0120658748768
 132    0.0014566766843952
 133    0.00098875792865562
 134    -0.00047088872672758
 135    -1.0455199876947e-06
 136    -1.2750478490483e-05
 137    0.00039551930208746
 138    -0.018058727816406
 139    -0.0072281952720062
 140    -0.0055979883469975
 141      0.01208409190508
 142    0.0057448166200367
 143     0.004142101498992
 144    0.0020646283562406
 145     0.003792775641582
 146    0.00040799065205166
 147    0.00082811967803555
 148    -0.0018992226457076
 149    -0.0076891764132702
 150    -0.0030882807155119
 151    0.00095633731752342
 152    -0.00043174321640193
 153    2.4540471639199e-05
 154    -0.017424460286599
 155    -0.0094274705723948
 156    -0.00093253102736296
 157    0.00049578985440659
 158    0.0011481008696863
 159     0.024530545019797
 160     0.011607526062398
 161    -0.00086412231990675
 162    -0.00015315930221044
 163    -0.0014168394965792
 164    -5.7813232565633e-06
 165    4.7068098123717e-05
 166    -0.00064529561495263
 167    -0.00018948997909373
 168    -0.012996961232681
 169     0.017085425340787
 170    0.00030442778985793
 171    0.0080626694585346
 172    -0.012180188973384
 173     0.001574968028904
 174    0.0032356984157244
 175    0.0011193532915924
 176    0.0006901691760944
 177    -0.0029848982019126
 178     -0.02587098893983
 179    -0.012267808302124
 180    -0.0010574775983721
 181    -0.0011357676666875
 182    0.00097279105714118
 183     0.011200152021693
 184    0.0046325555608327
 185    -8.5800734808124e-05
 186     0.001207301718618
 187    0.00022798125166902
 188     0.015341378144364
 189    0.0083723263486318
 190    0.0011301356932823
 191    -0.00082191709272553
 192    -0.00058921654220401
 193    -2.7203720751575e-05
 194    -6.8734154060672e-05
 195    8.6290780380459e-06
 196    -0.001483893134431
 197    0.00027565819506488
 198    -0.0016591967996766
 199    0.00093192608335019
 200    -0.0001637819768211
 201    0.0008796406285738
 202    -0.0002302372989218
 203    -0.00036274334562191
 204    -5.5329018740146e-05
 205    -8.6207377665069e-05
 206    0.00028353836941153
 207    -0.00041913847334554
 208    -0.00027829417068502
 209    0.00030780129283123
 210    0.00017736330976734
 211    3.2955193894441e-05
 212    -0.00044657205298508
 213    -0.00026157651634372
 214    -0.00011081622073876
 215    -0.00023267164804904
 216    0.00024453397386815
 217    0.00090653614380144
 218    0.00026122035422686
 219    -0.00019650577569157
 220    7.3762137348587e-05
 221    -0.00025066998372733
 222    -5.202878752204e-05
 223    -0.0001714108944585
 224    0.00044592291846708
 225    -2.7907015766977e-06
 226    -0.0001565783687291
 227    -0.00020099825931508
 228    -7.4216139695067e-05
 229    3.391686114423e-05
 230    0.00019183374166698
 231    4.917567659614e-06
 232    -2.0585786194402e-05
 233    1.0486578824334e-05
 234    1.5014297246767e-05
 235    1.7547195142124e-06
 236    -0.00013007264099637
 237    -0.00065731031179699
 238    4.7173007569159e-05
 239    -3.1423219063249e-05
 240    -2.402415833008e-05
 241    -4.4023377095691e-05
 242    -0.00031140877424229
 243    5.5858780198708e-06
 244    9.2923079900301e-06
 245    -4.2902873449306e-05
 246    7.1293455866904e-05
 247    0.00013381089041672
 248    -1.9517752230586e-06
 249    9.0688333530703e-06
 250    1.0014668277388e-05
 251    3.1047069221034e-05
 252    0.00012297177806751
 253    -0.0004882357197171
 254    1.5229535482268e-06
 255    0.00019486369040679
 256    1.1095533247986e-05
 257    -0.00016883742601935
 258    -0.00010202478934495
 259    -0.00015334526014187
 260    -1.7731531795987e-05
 261    -1.1339550176001e-05
 262    -1.3434175938713e-05
 263    1.2236110471134e-05
 264    3.9615919232545e-06
 265    -1.6852023660197e-05
 266    -9.9771698891872e-05
 267    9.7308364084945e-06
 268    -1.7619847666991e-05
 269    -8.6280547789453e-06
 270    0.00011922479918816
 271    0.00063823036354522
 272    -1.8369563627269e-05
 273    3.5476215354223e-05
 274    6.0477071272292e-05
 275    1.0671335894716e-05
 276    0.00034873066312695
 277    2.0647104984808e-05
 278    2.2757346418928e-05
 279    1.718187008109e-05
 280    3.3463131389767e-05
 281    0.0001285124916318
 282    -0.00048586325855359
 283    -0.00015962784376394
 284    2.3457250975697e-05
 285    0.00010272012122505
 286    -1.0360274157738e-05
 287    5.0362900802863e-05
 288    -0.00023921519796664
 289    -2.0417850872697e-05
 290    -3.1626355154238e-06
 291    -1.7160491906243e-05
 292    -8.0131396434089e-06
 293    3.5792847264247e-06
 294    -1.9060149424893e-05
 295    -0.00010747801433413
 296    1.2355631528353e-05
 297    -1.3814992404458e-05
 298    -9.9320406927935e-06
 299    9.6411669176509e-06
 300    0.00039920402911603
 301    -1.1939027293796e-05
 302    -1.0311063828796e-05
 303    3.4259917504424e-05
 304    0.00012099698910874
 305    0.00061028835145406
 306    -3.24331531515e-06
 307    4.6033303035607e-05
 308    5.1020083280648e-05
 309    -5.5898882193816e-05
 310    -0.00018349992789448
 311    0.00046807570899748
 312    7.0497372712383e-05
 313    -0.0001063421737134
 314    -0.00024458793997094
 315    3.0302042162686e-07
 316    0.00015837935397904
 317    0.00012422505411963
 318    -3.0051541154285e-06
 319    1.2021120304323e-07
 320    1.0375198418819e-05
 321    -2.4127254140417e-05
 322    1.4917390858774e-07
 323    6.8562311077867e-05
 324    0.00017425758866756
 325    -2.6266594055355e-06
 326    3.5070027345278e-06
 327    1.1534890191003e-05
 328    -4.3724360211224e-05
 329    -0.00042544877530909
 330    -3.0550060634235e-05
 331    -2.733853811654e-05
 332    -3.7584841214213e-05
 333    -0.00014446262326508
 334    -0.00063483097725787
 335    2.4177983753808e-05
 336    -3.7152784742432e-05
 337    -6.0777079183907e-06