[Molden Format]
made by pyscf v[2.1.1]
[Atoms] (AU)
Cr   1   24     1.56143912275337    -2.46507591990239    -1.82404491365355
Cr   2   24    -1.56139565905251     2.46513072196000     1.82399011159594
O   3   8     0.00002078698737     0.00002834589187    -0.00002645616574
N   4   7     5.12832174930954    -1.10581670549011    -0.60767356069801
H   5   1     6.65216855026694    -1.66292686427314    -1.66487895135981
H   6   1     5.63710405218294    -1.59213394419468     1.18765885421890
H   7   1     5.20084187906585     0.81566059741989    -0.65509245834172
N   8   7     1.71230729763415    -0.02251608677419    -4.99594076510539
H   9   1     0.29795878723855     1.27247165241550    -4.90823668593820
H   10   1     1.50271021425414    -0.85583806455427    -6.73026148236459
H   11   1     3.34039895052705     0.99863710888315    -5.18656310846864
N   12   7     1.41057094787259    -4.90763575303059     1.34785282752440
H   13   1     1.64193389675534    -6.79355407945465     0.97314659318890
H   14   1    -0.29048681014202    -4.81040367474334     2.24006056107205
H   15   1     2.72468082571676    -4.56691435331926     2.71738081369757
N   16   7    -2.00544350380280    -3.82433513431467    -3.04041437688297
H   17   1    -2.87205678671934    -5.05516478184926    -1.83221042023780
H   18   1    -2.03637832046193    -4.76397121413665    -4.73247136936628
H   19   1    -3.24475802163669    -2.37551046050250    -3.28123540501917
N   20   7     3.37923471211299    -5.33493873459111    -3.94755661599306
H   21   1     4.17102617885350    -4.76109883042731    -5.61685374703210
H   22   1     2.26176595533881    -6.82326057413281    -4.47610923358166
H   23   1     4.85383336053810    -6.19899521806112    -3.03922195969837
N   24   7    -5.12827828560868     1.10587339727385     0.60762064836653
H   25   1    -5.15408816501799    -0.81544705836782     0.54662784797006
H   26   1    -5.69743166898356     1.68113626520945    -1.14337690194197
H   27   1    -6.63528195761783     1.56841410187914     1.73267665553083
N   28   7    -1.71226383393328     0.02257088883181     4.99588785277390
H   29   1    -1.62991523860311     0.86667375415253     6.73575491620870
H   30   1    -0.22416876152653    -1.19157625647512     4.98456461383551
H   31   1    -3.28782110056328    -1.08746368536834     5.11339858210385
N   32   7     2.00548696750367     3.82438993637228     3.04035957482536
H   33   1     2.05186651577887     4.68410571893416     4.77402266739321
H   34   1     2.83712330958063     5.12208376337235     1.87805706574587
H   35   1     3.26582090902109     2.38241174030942     3.19051154350492
N   36   7    -1.41052748417173     4.90769055508820    -1.34790762958202
H   37   1    -1.75003190025884     6.78104976168840    -0.99229329828299
H   38   1    -2.65834387984003     4.49309409198925    -2.75785496783350
H   39   1     0.32278033988471     4.89894112313146    -2.18344058692784
N   40   7    -3.37919124841212     5.33499353664873     3.94750181393545
H   41   1    -2.26357064378777     6.83195331430581     4.45515784003860
H   42   1    -4.15358022727151     4.76963661305810     5.62761006813313
H   43   1    -4.86681766873998     6.18449345978121     3.04686590187224
[GTO]
1 0
 s    6 1.00
          51528.086349  0.0017695545768669
          7737.2103487   0.013556436258096
           1760.374847   0.067162645785071
          496.87706544    0.23295905918518
          161.46520598    0.47040576982722
          55.466352268    0.35733072606876
 s    3 1.00
          107.54732999   -0.10605255446629
          12.408671897    0.62543981484169
          5.0423628826    0.44878820793655
 s    3 1.00
          8.5461640165   -0.21819012081133
          1.3900441221    0.70422525667731
         0.56066602876    0.42488555412558
 s    1 1.00
        0.071483705972                   1
 s    1 1.00
        0.028250687604                   1
 p    5 1.00
          640.48536096  0.0093555063746755
          150.69711194   0.068993338492216
          47.503755296     0.2634118959318
          16.934120165    0.51034501651775
           6.240968059    0.33195512953954
 p    3 1.00
          3.0885463206    0.32917682676976
          1.1791047769    0.55491385190365
         0.43369774432    0.23818412855984
 p    1 1.00
              0.120675                   1
 d    4 1.00
          27.559479426   0.036950140313562
          7.4687020327    0.18821519783039
          2.4345903574    0.44641244239929
         0.78244754808     0.5681617303244
 d    1 1.00
         0.21995774311                   1
 f    1 1.00
                 1.147                   1

2 0
 s    6 1.00
          51528.086349  0.0017695545768669
          7737.2103487   0.013556436258096
           1760.374847   0.067162645785071
          496.87706544    0.23295905918518
          161.46520598    0.47040576982722
          55.466352268    0.35733072606876
 s    3 1.00
          107.54732999   -0.10605255446629
          12.408671897    0.62543981484169
          5.0423628826    0.44878820793655
 s    3 1.00
          8.5461640165   -0.21819012081133
          1.3900441221    0.70422525667731
         0.56066602876    0.42488555412558
 s    1 1.00
        0.071483705972                   1
 s    1 1.00
        0.028250687604                   1
 p    5 1.00
          640.48536096  0.0093555063746755
          150.69711194   0.068993338492216
          47.503755296     0.2634118959318
          16.934120165    0.51034501651775
           6.240968059    0.33195512953954
 p    3 1.00
          3.0885463206    0.32917682676976
          1.1791047769    0.55491385190365
         0.43369774432    0.23818412855984
 p    1 1.00
              0.120675                   1
 d    4 1.00
          27.559479426   0.036950140313562
          7.4687020327    0.18821519783039
          2.4345903574    0.44641244239929
         0.78244754808     0.5681617303244
 d    1 1.00
         0.21995774311                   1
 f    1 1.00
                 1.147                   1

3 0
 s    5 1.00
          2266.1767785  -0.0053893503921743
          340.87010191   -0.04023472138896
          77.363135167   -0.18008184205526
           21.47964494   -0.46828857657651
          6.6589433124   -0.44692617160187
 s    1 1.00
         0.80975975668                   1
 s    1 1.00
         0.25530772234                   1
 p    3 1.00
          17.721504317   0.062630248763161
           3.863550544    0.33331138482352
          1.0480920883    0.74148638308122
 p    1 1.00
         0.27641544411                   1
 d    1 1.00
                   1.2                   1

4 0
 s    5 1.00
          1712.8415853  -0.0054477995804909
          257.64812677  -0.040627174632423
          58.458245853   -0.18111962250584
          16.198367905   -0.46843975563173
          5.0052600809   -0.44616846289231
 s    1 1.00
         0.58731856571                   1
 s    1 1.00
         0.18764592253                   1
 p    3 1.00
          13.571470233  -0.058848116969522
          2.9257372874   -0.32024624762471
         0.79927750754   -0.75328226520436
 p    1 1.00
         0.21954348034                   1
 d    1 1.00
                     1                   1

5 0
 s    3 1.00
             13.010701   0.033485484812989
             1.9622572    0.23472187088125
            0.44453796    0.81377028525955
 s    1 1.00
            0.12194962                   1
 p    1 1.00
                   0.8                   1

6 0
 s    3 1.00
             13.010701   0.033485484812989
             1.9622572    0.23472187088125
            0.44453796    0.81377028525955
 s    1 1.00
            0.12194962                   1
 p    1 1.00
                   0.8                   1

7 0
 s    3 1.00
             13.010701   0.033485484812989
             1.9622572    0.23472187088125
            0.44453796    0.81377028525955
 s    1 1.00
            0.12194962                   1
 p    1 1.00
                   0.8                   1

8 0
 s    5 1.00
          1712.8415853  -0.0054477995804909
          257.64812677  -0.040627174632423
          58.458245853   -0.18111962250584
          16.198367905   -0.46843975563173
          5.0052600809   -0.44616846289231
 s    1 1.00
         0.58731856571                   1
 s    1 1.00
         0.18764592253                   1
 p    3 1.00
          13.571470233  -0.058848116969522
          2.9257372874   -0.32024624762471
         0.79927750754   -0.75328226520436
 p    1 1.00
         0.21954348034                   1
 d    1 1.00
                     1                   1

9 0
 s    3 1.00
             13.010701   0.033485484812989
             1.9622572    0.23472187088125
            0.44453796    0.81377028525955
 s    1 1.00
            0.12194962                   1
 p    1 1.00
                   0.8                   1

10 0
 s    3 1.00
             13.010701   0.033485484812989
             1.9622572    0.23472187088125
            0.44453796    0.81377028525955
 s    1 1.00
            0.12194962                   1
 p    1 1.00
                   0.8                   1

11 0
 s    3 1.00
             13.010701   0.033485484812989
             1.9622572    0.23472187088125
            0.44453796    0.81377028525955
 s    1 1.00
            0.12194962                   1
 p    1 1.00
                   0.8                   1

12 0
 s    5 1.00
          1712.8415853  -0.0054477995804909
          257.64812677  -0.040627174632423
          58.458245853   -0.18111962250584
          16.198367905   -0.46843975563173
          5.0052600809   -0.44616846289231
 s    1 1.00
         0.58731856571                   1
 s    1 1.00
         0.18764592253                   1
 p    3 1.00
          13.571470233  -0.058848116969522
          2.9257372874   -0.32024624762471
         0.79927750754   -0.75328226520436
 p    1 1.00
         0.21954348034                   1
 d    1 1.00
                     1                   1

13 0
 s    3 1.00
             13.010701   0.033485484812989
             1.9622572    0.23472187088125
            0.44453796    0.81377028525955
 s    1 1.00
            0.12194962                   1
 p    1 1.00
                   0.8                   1

14 0
 s    3 1.00
             13.010701   0.033485484812989
             1.9622572    0.23472187088125
            0.44453796    0.81377028525955
 s    1 1.00
            0.12194962                   1
 p    1 1.00
                   0.8                   1

15 0
 s    3 1.00
             13.010701   0.033485484812989
             1.9622572    0.23472187088125
            0.44453796    0.81377028525955
 s    1 1.00
            0.12194962                   1
 p    1 1.00
                   0.8                   1

16 0
 s    5 1.00
          1712.8415853  -0.0054477995804909
          257.64812677  -0.040627174632423
          58.458245853   -0.18111962250584
          16.198367905   -0.46843975563173
          5.0052600809   -0.44616846289231
 s    1 1.00
         0.58731856571                   1
 s    1 1.00
         0.18764592253                   1
 p    3 1.00
          13.571470233  -0.058848116969522
          2.9257372874   -0.32024624762471
         0.79927750754   -0.75328226520436
 p    1 1.00
         0.21954348034                   1
 d    1 1.00
                     1                   1

17 0
 s    3 1.00
             13.010701   0.033485484812989
             1.9622572    0.23472187088125
            0.44453796    0.81377028525955
 s    1 1.00
            0.12194962                   1
 p    1 1.00
                   0.8                   1

18 0
 s    3 1.00
             13.010701   0.033485484812989
             1.9622572    0.23472187088125
            0.44453796    0.81377028525955
 s    1 1.00
            0.12194962                   1
 p    1 1.00
                   0.8                   1

19 0
 s    3 1.00
             13.010701   0.033485484812989
             1.9622572    0.23472187088125
            0.44453796    0.81377028525955
 s    1 1.00
            0.12194962                   1
 p    1 1.00
                   0.8                   1

20 0
 s    5 1.00
          1712.8415853  -0.0054477995804909
          257.64812677  -0.040627174632423
          58.458245853   -0.18111962250584
          16.198367905   -0.46843975563173
          5.0052600809   -0.44616846289231
 s    1 1.00
         0.58731856571                   1
 s    1 1.00
         0.18764592253                   1
 p    3 1.00
          13.571470233  -0.058848116969522
          2.9257372874   -0.32024624762471
         0.79927750754   -0.75328226520436
 p    1 1.00
         0.21954348034                   1
 d    1 1.00
                     1                   1

21 0
 s    3 1.00
             13.010701   0.033485484812989
             1.9622572    0.23472187088125
            0.44453796    0.81377028525955
 s    1 1.00
            0.12194962                   1
 p    1 1.00
                   0.8                   1

22 0
 s    3 1.00
             13.010701   0.033485484812989
             1.9622572    0.23472187088125
            0.44453796    0.81377028525955
 s    1 1.00
            0.12194962                   1
 p    1 1.00
                   0.8                   1

23 0
 s    3 1.00
             13.010701   0.033485484812989
             1.9622572    0.23472187088125
            0.44453796    0.81377028525955
 s    1 1.00
            0.12194962                   1
 p    1 1.00
                   0.8                   1

24 0
 s    5 1.00
          1712.8415853  -0.0054477995804909
          257.64812677  -0.040627174632423
          58.458245853   -0.18111962250584
          16.198367905   -0.46843975563173
          5.0052600809   -0.44616846289231
 s    1 1.00
         0.58731856571                   1
 s    1 1.00
         0.18764592253                   1
 p    3 1.00
          13.571470233  -0.058848116969522
          2.9257372874   -0.32024624762471
         0.79927750754   -0.75328226520436
 p    1 1.00
         0.21954348034                   1
 d    1 1.00
                     1                   1

25 0
 s    3 1.00
             13.010701   0.033485484812989
             1.9622572    0.23472187088125
            0.44453796    0.81377028525955
 s    1 1.00
            0.12194962                   1
 p    1 1.00
                   0.8                   1

26 0
 s    3 1.00
             13.010701   0.033485484812989
             1.9622572    0.23472187088125
            0.44453796    0.81377028525955
 s    1 1.00
            0.12194962                   1
 p    1 1.00
                   0.8                   1

27 0
 s    3 1.00
             13.010701   0.033485484812989
             1.9622572    0.23472187088125
            0.44453796    0.81377028525955
 s    1 1.00
            0.12194962                   1
 p    1 1.00
                   0.8                   1

28 0
 s    5 1.00
          1712.8415853  -0.0054477995804909
          257.64812677  -0.040627174632423
          58.458245853   -0.18111962250584
          16.198367905   -0.46843975563173
          5.0052600809   -0.44616846289231
 s    1 1.00
         0.58731856571                   1
 s    1 1.00
         0.18764592253                   1
 p    3 1.00
          13.571470233  -0.058848116969522
          2.9257372874   -0.32024624762471
         0.79927750754   -0.75328226520436
 p    1 1.00
         0.21954348034                   1
 d    1 1.00
                     1                   1

29 0
 s    3 1.00
             13.010701   0.033485484812989
             1.9622572    0.23472187088125
            0.44453796    0.81377028525955
 s    1 1.00
            0.12194962                   1
 p    1 1.00
                   0.8                   1

30 0
 s    3 1.00
             13.010701   0.033485484812989
             1.9622572    0.23472187088125
            0.44453796    0.81377028525955
 s    1 1.00
            0.12194962                   1
 p    1 1.00
                   0.8                   1

31 0
 s    3 1.00
             13.010701   0.033485484812989
             1.9622572    0.23472187088125
            0.44453796    0.81377028525955
 s    1 1.00
            0.12194962                   1
 p    1 1.00
                   0.8                   1

32 0
 s    5 1.00
          1712.8415853  -0.0054477995804909
          257.64812677  -0.040627174632423
          58.458245853   -0.18111962250584
          16.198367905   -0.46843975563173
          5.0052600809   -0.44616846289231
 s    1 1.00
         0.58731856571                   1
 s    1 1.00
         0.18764592253                   1
 p    3 1.00
          13.571470233  -0.058848116969522
          2.9257372874   -0.32024624762471
         0.79927750754   -0.75328226520436
 p    1 1.00
         0.21954348034                   1
 d    1 1.00
                     1                   1

33 0
 s    3 1.00
             13.010701   0.033485484812989
             1.9622572    0.23472187088125
            0.44453796    0.81377028525955
 s    1 1.00
            0.12194962                   1
 p    1 1.00
                   0.8                   1

34 0
 s    3 1.00
             13.010701   0.033485484812989
             1.9622572    0.23472187088125
            0.44453796    0.81377028525955
 s    1 1.00
            0.12194962                   1
 p    1 1.00
                   0.8                   1

35 0
 s    3 1.00
             13.010701   0.033485484812989
             1.9622572    0.23472187088125
            0.44453796    0.81377028525955
 s    1 1.00
            0.12194962                   1
 p    1 1.00
                   0.8                   1

36 0
 s    5 1.00
          1712.8415853  -0.0054477995804909
          257.64812677  -0.040627174632423
          58.458245853   -0.18111962250584
          16.198367905   -0.46843975563173
          5.0052600809   -0.44616846289231
 s    1 1.00
         0.58731856571                   1
 s    1 1.00
         0.18764592253                   1
 p    3 1.00
          13.571470233  -0.058848116969522
          2.9257372874   -0.32024624762471
         0.79927750754   -0.75328226520436
 p    1 1.00
         0.21954348034                   1
 d    1 1.00
                     1                   1

37 0
 s    3 1.00
             13.010701   0.033485484812989
             1.9622572    0.23472187088125
            0.44453796    0.81377028525955
 s    1 1.00
            0.12194962                   1
 p    1 1.00
                   0.8                   1

38 0
 s    3 1.00
             13.010701   0.033485484812989
             1.9622572    0.23472187088125
            0.44453796    0.81377028525955
 s    1 1.00
            0.12194962                   1
 p    1 1.00
                   0.8                   1

39 0
 s    3 1.00
             13.010701   0.033485484812989
             1.9622572    0.23472187088125
            0.44453796    0.81377028525955
 s    1 1.00
            0.12194962                   1
 p    1 1.00
                   0.8                   1

40 0
 s    5 1.00
          1712.8415853  -0.0054477995804909
          257.64812677  -0.040627174632423
          58.458245853   -0.18111962250584
          16.198367905   -0.46843975563173
          5.0052600809   -0.44616846289231
 s    1 1.00
         0.58731856571                   1
 s    1 1.00
         0.18764592253                   1
 p    3 1.00
          13.571470233  -0.058848116969522
          2.9257372874   -0.32024624762471
         0.79927750754   -0.75328226520436
 p    1 1.00
         0.21954348034                   1
 d    1 1.00
                     1                   1

41 0
 s    3 1.00
             13.010701   0.033485484812989
             1.9622572    0.23472187088125
            0.44453796    0.81377028525955
 s    1 1.00
            0.12194962                   1
 p    1 1.00
                   0.8                   1

42 0
 s    3 1.00
             13.010701   0.033485484812989
             1.9622572    0.23472187088125
            0.44453796    0.81377028525955
 s    1 1.00
            0.12194962                   1
 p    1 1.00
                   0.8                   1

43 0
 s    3 1.00
             13.010701   0.033485484812989
             1.9622572    0.23472187088125
            0.44453796    0.81377028525955
 s    1 1.00
            0.12194962                   1
 p    1 1.00
                   0.8                   1

[5d]
[7f]
[9g]

[MO]
 Sym= A
 Ene=               0
 Spin= Alpha
 Occup=    1.00000
   1    5.9706913252614e-06
   2    -1.5486539446789e-05
   3    9.0890008624283e-05
   4    -0.00028312057308318
   5    9.4447409360566e-05
   6    -7.5010198124024e-05
   7    -8.2878595901466e-05
   8    6.2830030670405e-05
   9    0.00023057677761605
  10    0.00026234469171725
  11    -0.00019962076846273
  12    0.00014955774058815
  13    7.6682521538169e-05
  14    0.00013378377574446
  15    -0.068463756551309
  16     0.044360625600177
  17     0.086607363735021
  18     0.077205039120852
  19     0.041092450223615
  20    -0.050494046031392
  21     0.032823180449859
  22     0.063684126121352
  23     0.056446994870218
  24     0.030272089374908
  25    0.00037930483816216
  26    -0.00032048738939647
  27    -0.00012232623537411
  28    0.00022066860626079
  29    -3.9105054146857e-05
  30    0.00041422809767451
  31    -0.00023427389759302
  32    5.5449827712943e-06
  33    -1.4434405706712e-05
  34    8.4448213652284e-05
  35    -0.00018552272613699
  36    -0.00017082853649042
  37    -6.5926930572734e-05
  38    -9.1074009562808e-05
  39    5.4053402205616e-05
  40    0.00020518637724285
  41    0.00028305030491557
  42    -0.00017361385568719
  43    0.00013338197183946
  44    5.9935589634664e-05
  45    3.6060078384907e-05
  46      0.06642880291571
  47    -0.043305283050805
  48    -0.083934473743212
  49     -0.07512557147126
  50     -0.04006729899527
  51     0.049050223131502
  52     -0.03202959974547
  53    -0.061745224146462
  54    -0.054939308520698
  55     -0.02954512488422
  56    0.00036481252828796
  57    -0.00031010453932352
  58    -0.00011600644380692
  59    0.0002132811815193
  60    -4.7260315987809e-05
  61    0.00040815908660055
  62    -0.00022956987943728
  63    0.00018621198973467
  64    4.7590522974711e-05
  65    -0.00014804236684134
  66    -7.1355036947245e-05
  67    -9.7202578558035e-05
  68    6.7647534384483e-05
  69    -0.00016638204976269
  70    -0.00027700823525065
  71    0.00026545792177236
  72    -8.0413252377052e-06
  73    3.8527374340669e-06
  74    9.7221691131499e-06
  75    8.8969246020996e-06
  76    7.249491802016e-06
  77     0.043262997320521
  78      0.11023810621733
  79     0.092836927936439
  80      0.15205032985928
  81     0.062241170248085
  82     0.051918131255621
  83     -0.10481686774874
  84    -0.048144990099994
  85    -0.038014049764732
  86    -0.00016058608979258
  87    0.00013655012359674
  88    0.00036438888274591
  89    0.00015795117441185
  90    0.00012128543393153
  91    -0.018188510858368
  92    -0.011788306893723
  93    -0.0028294288433208
  94    -0.002957583874992
  95    -0.0033066671480124
  96    -0.017783914498129
  97    -0.013648813579503
  98    -0.0045849121123267
  99    -0.0022089277083994
 100    0.00067729740057009
 101    -0.012283033841378
 102    -0.013350416666488
 103    -0.0051217365609747
 104    -0.00029977552806613
 105    -0.0012762882763933
 106    -0.043055778073439
 107     -0.10938198627997
 108    -0.093573743970248
 109    -0.0025427499306966
 110     -0.10816906813666
 111      0.13441343571947
 112    -0.0011556282954831
 113      0.07996853858077
 114    -0.092404757489723
 115    -0.00016272280652485
 116    0.00011331995864083
 117    0.00026246305573665
 118    0.00029287766657146
 119    0.00019292513035574
 120     0.010911453958705
 121     0.014797910143111
 122    0.0011342007322474
 123    0.0021617847621414
 124    -0.0046195339718479
 125     0.018844873964072
 126     0.011743110753696
 127    0.00035959237543954
 128    0.0047593569288984
 129    -0.0018784536296334
 130     0.018287456372504
 131     0.012216397230731
 132    -0.0017779782830086
 133    0.0019462800236924
 134    -0.0043003417900707
 135    -0.043316402203915
 136     -0.11037943980363
 137    -0.092975037476762
 138    0.0097916042085229
 139      0.10387521037271
 140     -0.13741022336871
 141    -0.010216901819251
 142    -0.070118202214661
 143     0.098803905657205
 144    -0.00028860859927168
 145    0.00018519151208516
 146    0.00016858840596446
 147    0.00022498826836383
 148    0.00013636961995685
 149     0.018133858825062
 150     0.011638861933387
 151    -0.00070875149616503
 152    -0.00068281436195299
 153    0.0051722616574078
 154     0.012593302559592
 155     0.013567963426264
 156    0.0010856498627972
 157    -0.0039014109752988
 158    0.0034228858333133
 159     0.017613079486961
 160     0.013698825187684
 161    -0.0015890239877435
 162    -0.0041358479918131
 163    0.0026073358652919
 164     0.043033054886304
 165      0.10939719895464
 166      0.09322974576554
 167      -0.1551557799486
 168     -0.05416080960891
 169    -0.051401009191371
 170      0.11201708954233
 171     0.034111091585514
 172     0.034147307790958
 173    -0.00022745738045027
 174    0.00010995159267171
 175    0.00028153796339149
 176    0.00029212974650342
 177    4.8629229070079e-05
 178    -0.017693252057947
 179    -0.012528050815958
 180    0.0037903567019539
 181    0.00063643262211867
 182    0.0033124327304735
 183    -0.018770885903885
 184    -0.011827679158316
 185    0.0051034247591392
 186    0.00035422628608841
 187    -0.00080789148118743
 188    -0.011579493786914
 189    -0.013950903038896
 190    0.0038288750413802
 191    0.0030271784073362
 192    0.0018795154715867
 193    7.7221346090883e-05
 194    0.00016739928304588
 195    0.00024685478245429
 196    -0.00013730511435758
 197    -0.0004849788650484
 198    6.5062069745502e-05
 199    0.0011792872264286
 200    0.0017861565493952
 201    -0.0009023276806852
 202    -0.00029347490857402
 203    0.00018779052529076
 204    0.00037887507365401
 205    0.00034371936626488
 206     0.000178260497662
 207    -0.0016164593815508
 208    -0.0007950689332801
 209    0.00036153438988821
 210    -0.00051886686930071
 211    8.333808498486e-05
 212    0.0014004155243312
 213    0.00070537717846074
 214    -0.00052871608035096
 215    0.00033104747444264
 216    -5.2703356120532e-05
 217    0.00012598863750593
 218    9.8911215566676e-05
 219    0.00036710257126191
 220    0.00043392406214212
 221    -0.0001742955261045
 222    -0.042066723031595
 223      -0.1071956405097
 224    -0.090242738640997
 225      0.14784865927592
 226     0.060925281867967
 227     0.050414566196798
 228     -0.10177962268107
 229    -0.047293211370808
 230     -0.03691433202128
 231     0.000148134822003
 232    -0.00013083080879792
 233    -0.00035359833226459
 234    -0.00016269840344928
 235    -0.00011886122656235
 236     0.011594280269585
 237     0.013127638960406
 238    -0.004994163302213
 239    -0.00035780008345175
 240    -0.0011645860926577
 241     0.017712727683838
 242     0.013126054113764
 243    -0.004354915589148
 244    -0.002307854726633
 245    0.00068628117586508
 246     0.017647790643303
 247     0.011527295006606
 248    -0.0027731814347303
 249    -0.0027335739497532
 250    -0.0032882256971414
 251     0.041786192640796
 252      0.10621038824649
 253     0.090629138539801
 254    -0.0025554005671465
 255     -0.10471793942287
 256       0.1305230271518
 257    -0.0011029688860257
 258      0.07745639607271
 259    -0.089716526269803
 260    0.00016319384902678
 261    -0.00010999478330987
 262    -0.0002484750304623
 263    -0.00028380034482866
 264    -0.00018565986723155
 265    -0.018301452355932
 266    -0.011437275285134
 267    0.00016884154256446
 268    0.0046667646187911
 269    -0.001803077493142
 270    -0.010902245187809
 271    -0.013974576706292
 272    0.0011666604347198
 273    0.0021108170173892
 274    -0.0044549063109826
 275    -0.017481206286303
 276    -0.011913671941189
 277    -0.0015844443997087
 278    0.0017836432842289
 279    -0.0042955459480115
 280    -0.041864287227033
 281     -0.10642437685062
 282    -0.090746871734888
 283      -0.1511348182323
 284    -0.052499274273436
 285    -0.049942085522916
 286      0.10904140106096
 287     0.032972018019062
 288     0.033078071522029
 289    0.00022127551935006
 290    -0.00010541175992526
 291    -0.00027332786740395
 292    -0.00028141103524482
 293    -5.1448805599127e-05
 294     0.018306837388642
 295      0.01147758150702
 296    0.0049322584404065
 297    0.00045822634673056
 298    -0.00084259454747264
 299     0.017449792621098
 300     0.012160855172146
 301    0.0037189599097589
 302    0.00048469267918687
 303     0.003197620890227
 304     0.011020334409793
 305     0.013898796900629
 306    0.0037223510750891
 307    0.0029063333465142
 308    0.0018743201333962
 309     0.042034735384445
 310      0.10717252096665
 311     0.090080286868815
 312    0.0091042669547005
 313       0.1007483898101
 314     -0.13340426968062
 315    -0.009492366993597
 316    -0.067931948779127
 317     0.095940770523772
 318    0.0002733948583146
 319    -0.00018685458617768
 320    -0.00015813474697814
 321    -0.00022503631735088
 322    -0.00013896250809121
 323    -0.017628317105394
 324     -0.01125365531618
 325    -0.00083159383964554
 326    -0.00066106287262204
 327    0.0050217885597003
 328     -0.01668092089014
 329    -0.013425540047314
 330    -0.0013767720136504
 331    -0.0041024618133796
 332    0.0025359932870864
 333    -0.012642790085043
 334    -0.013044340291547
 335    0.0011463341383612
 336    -0.0037366532983294
 337    0.0033390615402849
 338    7.2869189229781e-05
 339    0.00017014446968284
 340    0.00018933979833751
 341    -0.00034414956850799
 342    -0.0001184840867445
 343    0.00033390477598431