[Molden Format]
made by pyscf v[2.1.1]
[Atoms] (AU)
Cr   1   24     1.56143912275337    -2.46507591990239    -1.82404491365355
Cr   2   24    -1.56139565905251     2.46513072196000     1.82399011159594
O   3   8     0.00002078698737     0.00002834589187    -0.00002645616574
N   4   7     5.12832174930954    -1.10581670549011    -0.60767356069801
H   5   1     6.65216855026694    -1.66292686427314    -1.66487895135981
H   6   1     5.63710405218294    -1.59213394419468     1.18765885421890
H   7   1     5.20084187906585     0.81566059741989    -0.65509245834172
N   8   7     1.71230729763415    -0.02251608677419    -4.99594076510539
H   9   1     0.29795878723855     1.27247165241550    -4.90823668593820
H   10   1     1.50271021425414    -0.85583806455427    -6.73026148236459
H   11   1     3.34039895052705     0.99863710888315    -5.18656310846864
N   12   7     1.41057094787259    -4.90763575303059     1.34785282752440
H   13   1     1.64193389675534    -6.79355407945465     0.97314659318890
H   14   1    -0.29048681014202    -4.81040367474334     2.24006056107205
H   15   1     2.72468082571676    -4.56691435331926     2.71738081369757
N   16   7    -2.00544350380280    -3.82433513431467    -3.04041437688297
H   17   1    -2.87205678671934    -5.05516478184926    -1.83221042023780
H   18   1    -2.03637832046193    -4.76397121413665    -4.73247136936628
H   19   1    -3.24475802163669    -2.37551046050250    -3.28123540501917
N   20   7     3.37923471211299    -5.33493873459111    -3.94755661599306
H   21   1     4.17102617885350    -4.76109883042731    -5.61685374703210
H   22   1     2.26176595533881    -6.82326057413281    -4.47610923358166
H   23   1     4.85383336053810    -6.19899521806112    -3.03922195969837
N   24   7    -5.12827828560868     1.10587339727385     0.60762064836653
H   25   1    -5.15408816501799    -0.81544705836782     0.54662784797006
H   26   1    -5.69743166898356     1.68113626520945    -1.14337690194197
H   27   1    -6.63528195761783     1.56841410187914     1.73267665553083
N   28   7    -1.71226383393328     0.02257088883181     4.99588785277390
H   29   1    -1.62991523860311     0.86667375415253     6.73575491620870
H   30   1    -0.22416876152653    -1.19157625647512     4.98456461383551
H   31   1    -3.28782110056328    -1.08746368536834     5.11339858210385
N   32   7     2.00548696750367     3.82438993637228     3.04035957482536
H   33   1     2.05186651577887     4.68410571893416     4.77402266739321
H   34   1     2.83712330958063     5.12208376337235     1.87805706574587
H   35   1     3.26582090902109     2.38241174030942     3.19051154350492
N   36   7    -1.41052748417173     4.90769055508820    -1.34790762958202
H   37   1    -1.75003190025884     6.78104976168840    -0.99229329828299
H   38   1    -2.65834387984003     4.49309409198925    -2.75785496783350
H   39   1     0.32278033988471     4.89894112313146    -2.18344058692784
N   40   7    -3.37919124841212     5.33499353664873     3.94750181393545
H   41   1    -2.26357064378777     6.83195331430581     4.45515784003860
H   42   1    -4.15358022727151     4.76963661305810     5.62761006813313
H   43   1    -4.86681766873998     6.18449345978121     3.04686590187224
[GTO]
1 0
 s    6 1.00
          51528.086349  0.0017695545768669
          7737.2103487   0.013556436258096
           1760.374847   0.067162645785071
          496.87706544    0.23295905918518
          161.46520598    0.47040576982722
          55.466352268    0.35733072606876
 s    3 1.00
          107.54732999   -0.10605255446629
          12.408671897    0.62543981484169
          5.0423628826    0.44878820793655
 s    3 1.00
          8.5461640165   -0.21819012081133
          1.3900441221    0.70422525667731
         0.56066602876    0.42488555412558
 s    1 1.00
        0.071483705972                   1
 s    1 1.00
        0.028250687604                   1
 p    5 1.00
          640.48536096  0.0093555063746755
          150.69711194   0.068993338492216
          47.503755296     0.2634118959318
          16.934120165    0.51034501651775
           6.240968059    0.33195512953954
 p    3 1.00
          3.0885463206    0.32917682676976
          1.1791047769    0.55491385190365
         0.43369774432    0.23818412855984
 p    1 1.00
              0.120675                   1
 d    4 1.00
          27.559479426   0.036950140313562
          7.4687020327    0.18821519783039
          2.4345903574    0.44641244239929
         0.78244754808     0.5681617303244
 d    1 1.00
         0.21995774311                   1
 f    1 1.00
                 1.147                   1

2 0
 s    6 1.00
          51528.086349  0.0017695545768669
          7737.2103487   0.013556436258096
           1760.374847   0.067162645785071
          496.87706544    0.23295905918518
          161.46520598    0.47040576982722
          55.466352268    0.35733072606876
 s    3 1.00
          107.54732999   -0.10605255446629
          12.408671897    0.62543981484169
          5.0423628826    0.44878820793655
 s    3 1.00
          8.5461640165   -0.21819012081133
          1.3900441221    0.70422525667731
         0.56066602876    0.42488555412558
 s    1 1.00
        0.071483705972                   1
 s    1 1.00
        0.028250687604                   1
 p    5 1.00
          640.48536096  0.0093555063746755
          150.69711194   0.068993338492216
          47.503755296     0.2634118959318
          16.934120165    0.51034501651775
           6.240968059    0.33195512953954
 p    3 1.00
          3.0885463206    0.32917682676976
          1.1791047769    0.55491385190365
         0.43369774432    0.23818412855984
 p    1 1.00
              0.120675                   1
 d    4 1.00
          27.559479426   0.036950140313562
          7.4687020327    0.18821519783039
          2.4345903574    0.44641244239929
         0.78244754808     0.5681617303244
 d    1 1.00
         0.21995774311                   1
 f    1 1.00
                 1.147                   1

3 0
 s    5 1.00
          2266.1767785  -0.0053893503921743
          340.87010191   -0.04023472138896
          77.363135167   -0.18008184205526
           21.47964494   -0.46828857657651
          6.6589433124   -0.44692617160187
 s    1 1.00
         0.80975975668                   1
 s    1 1.00
         0.25530772234                   1
 p    3 1.00
          17.721504317   0.062630248763161
           3.863550544    0.33331138482352
          1.0480920883    0.74148638308122
 p    1 1.00
         0.27641544411                   1
 d    1 1.00
                   1.2                   1

4 0
 s    5 1.00
          1712.8415853  -0.0054477995804909
          257.64812677  -0.040627174632423
          58.458245853   -0.18111962250584
          16.198367905   -0.46843975563173
          5.0052600809   -0.44616846289231
 s    1 1.00
         0.58731856571                   1
 s    1 1.00
         0.18764592253                   1
 p    3 1.00
          13.571470233  -0.058848116969522
          2.9257372874   -0.32024624762471
         0.79927750754   -0.75328226520436
 p    1 1.00
         0.21954348034                   1
 d    1 1.00
                     1                   1

5 0
 s    3 1.00
             13.010701   0.033485484812989
             1.9622572    0.23472187088125
            0.44453796    0.81377028525955
 s    1 1.00
            0.12194962                   1
 p    1 1.00
                   0.8                   1

6 0
 s    3 1.00
             13.010701   0.033485484812989
             1.9622572    0.23472187088125
            0.44453796    0.81377028525955
 s    1 1.00
            0.12194962                   1
 p    1 1.00
                   0.8                   1

7 0
 s    3 1.00
             13.010701   0.033485484812989
             1.9622572    0.23472187088125
            0.44453796    0.81377028525955
 s    1 1.00
            0.12194962                   1
 p    1 1.00
                   0.8                   1

8 0
 s    5 1.00
          1712.8415853  -0.0054477995804909
          257.64812677  -0.040627174632423
          58.458245853   -0.18111962250584
          16.198367905   -0.46843975563173
          5.0052600809   -0.44616846289231
 s    1 1.00
         0.58731856571                   1
 s    1 1.00
         0.18764592253                   1
 p    3 1.00
          13.571470233  -0.058848116969522
          2.9257372874   -0.32024624762471
         0.79927750754   -0.75328226520436
 p    1 1.00
         0.21954348034                   1
 d    1 1.00
                     1                   1

9 0
 s    3 1.00
             13.010701   0.033485484812989
             1.9622572    0.23472187088125
            0.44453796    0.81377028525955
 s    1 1.00
            0.12194962                   1
 p    1 1.00
                   0.8                   1

10 0
 s    3 1.00
             13.010701   0.033485484812989
             1.9622572    0.23472187088125
            0.44453796    0.81377028525955
 s    1 1.00
            0.12194962                   1
 p    1 1.00
                   0.8                   1

11 0
 s    3 1.00
             13.010701   0.033485484812989
             1.9622572    0.23472187088125
            0.44453796    0.81377028525955
 s    1 1.00
            0.12194962                   1
 p    1 1.00
                   0.8                   1

12 0
 s    5 1.00
          1712.8415853  -0.0054477995804909
          257.64812677  -0.040627174632423
          58.458245853   -0.18111962250584
          16.198367905   -0.46843975563173
          5.0052600809   -0.44616846289231
 s    1 1.00
         0.58731856571                   1
 s    1 1.00
         0.18764592253                   1
 p    3 1.00
          13.571470233  -0.058848116969522
          2.9257372874   -0.32024624762471
         0.79927750754   -0.75328226520436
 p    1 1.00
         0.21954348034                   1
 d    1 1.00
                     1                   1

13 0
 s    3 1.00
             13.010701   0.033485484812989
             1.9622572    0.23472187088125
            0.44453796    0.81377028525955
 s    1 1.00
            0.12194962                   1
 p    1 1.00
                   0.8                   1

14 0
 s    3 1.00
             13.010701   0.033485484812989
             1.9622572    0.23472187088125
            0.44453796    0.81377028525955
 s    1 1.00
            0.12194962                   1
 p    1 1.00
                   0.8                   1

15 0
 s    3 1.00
             13.010701   0.033485484812989
             1.9622572    0.23472187088125
            0.44453796    0.81377028525955
 s    1 1.00
            0.12194962                   1
 p    1 1.00
                   0.8                   1

16 0
 s    5 1.00
          1712.8415853  -0.0054477995804909
          257.64812677  -0.040627174632423
          58.458245853   -0.18111962250584
          16.198367905   -0.46843975563173
          5.0052600809   -0.44616846289231
 s    1 1.00
         0.58731856571                   1
 s    1 1.00
         0.18764592253                   1
 p    3 1.00
          13.571470233  -0.058848116969522
          2.9257372874   -0.32024624762471
         0.79927750754   -0.75328226520436
 p    1 1.00
         0.21954348034                   1
 d    1 1.00
                     1                   1

17 0
 s    3 1.00
             13.010701   0.033485484812989
             1.9622572    0.23472187088125
            0.44453796    0.81377028525955
 s    1 1.00
            0.12194962                   1
 p    1 1.00
                   0.8                   1

18 0
 s    3 1.00
             13.010701   0.033485484812989
             1.9622572    0.23472187088125
            0.44453796    0.81377028525955
 s    1 1.00
            0.12194962                   1
 p    1 1.00
                   0.8                   1

19 0
 s    3 1.00
             13.010701   0.033485484812989
             1.9622572    0.23472187088125
            0.44453796    0.81377028525955
 s    1 1.00
            0.12194962                   1
 p    1 1.00
                   0.8                   1

20 0
 s    5 1.00
          1712.8415853  -0.0054477995804909
          257.64812677  -0.040627174632423
          58.458245853   -0.18111962250584
          16.198367905   -0.46843975563173
          5.0052600809   -0.44616846289231
 s    1 1.00
         0.58731856571                   1
 s    1 1.00
         0.18764592253                   1
 p    3 1.00
          13.571470233  -0.058848116969522
          2.9257372874   -0.32024624762471
         0.79927750754   -0.75328226520436
 p    1 1.00
         0.21954348034                   1
 d    1 1.00
                     1                   1

21 0
 s    3 1.00
             13.010701   0.033485484812989
             1.9622572    0.23472187088125
            0.44453796    0.81377028525955
 s    1 1.00
            0.12194962                   1
 p    1 1.00
                   0.8                   1

22 0
 s    3 1.00
             13.010701   0.033485484812989
             1.9622572    0.23472187088125
            0.44453796    0.81377028525955
 s    1 1.00
            0.12194962                   1
 p    1 1.00
                   0.8                   1

23 0
 s    3 1.00
             13.010701   0.033485484812989
             1.9622572    0.23472187088125
            0.44453796    0.81377028525955
 s    1 1.00
            0.12194962                   1
 p    1 1.00
                   0.8                   1

24 0
 s    5 1.00
          1712.8415853  -0.0054477995804909
          257.64812677  -0.040627174632423
          58.458245853   -0.18111962250584
          16.198367905   -0.46843975563173
          5.0052600809   -0.44616846289231
 s    1 1.00
         0.58731856571                   1
 s    1 1.00
         0.18764592253                   1
 p    3 1.00
          13.571470233  -0.058848116969522
          2.9257372874   -0.32024624762471
         0.79927750754   -0.75328226520436
 p    1 1.00
         0.21954348034                   1
 d    1 1.00
                     1                   1

25 0
 s    3 1.00
             13.010701   0.033485484812989
             1.9622572    0.23472187088125
            0.44453796    0.81377028525955
 s    1 1.00
            0.12194962                   1
 p    1 1.00
                   0.8                   1

26 0
 s    3 1.00
             13.010701   0.033485484812989
             1.9622572    0.23472187088125
            0.44453796    0.81377028525955
 s    1 1.00
            0.12194962                   1
 p    1 1.00
                   0.8                   1

27 0
 s    3 1.00
             13.010701   0.033485484812989
             1.9622572    0.23472187088125
            0.44453796    0.81377028525955
 s    1 1.00
            0.12194962                   1
 p    1 1.00
                   0.8                   1

28 0
 s    5 1.00
          1712.8415853  -0.0054477995804909
          257.64812677  -0.040627174632423
          58.458245853   -0.18111962250584
          16.198367905   -0.46843975563173
          5.0052600809   -0.44616846289231
 s    1 1.00
         0.58731856571                   1
 s    1 1.00
         0.18764592253                   1
 p    3 1.00
          13.571470233  -0.058848116969522
          2.9257372874   -0.32024624762471
         0.79927750754   -0.75328226520436
 p    1 1.00
         0.21954348034                   1
 d    1 1.00
                     1                   1

29 0
 s    3 1.00
             13.010701   0.033485484812989
             1.9622572    0.23472187088125
            0.44453796    0.81377028525955
 s    1 1.00
            0.12194962                   1
 p    1 1.00
                   0.8                   1

30 0
 s    3 1.00
             13.010701   0.033485484812989
             1.9622572    0.23472187088125
            0.44453796    0.81377028525955
 s    1 1.00
            0.12194962                   1
 p    1 1.00
                   0.8                   1

31 0
 s    3 1.00
             13.010701   0.033485484812989
             1.9622572    0.23472187088125
            0.44453796    0.81377028525955
 s    1 1.00
            0.12194962                   1
 p    1 1.00
                   0.8                   1

32 0
 s    5 1.00
          1712.8415853  -0.0054477995804909
          257.64812677  -0.040627174632423
          58.458245853   -0.18111962250584
          16.198367905   -0.46843975563173
          5.0052600809   -0.44616846289231
 s    1 1.00
         0.58731856571                   1
 s    1 1.00
         0.18764592253                   1
 p    3 1.00
          13.571470233  -0.058848116969522
          2.9257372874   -0.32024624762471
         0.79927750754   -0.75328226520436
 p    1 1.00
         0.21954348034                   1
 d    1 1.00
                     1                   1

33 0
 s    3 1.00
             13.010701   0.033485484812989
             1.9622572    0.23472187088125
            0.44453796    0.81377028525955
 s    1 1.00
            0.12194962                   1
 p    1 1.00
                   0.8                   1

34 0
 s    3 1.00
             13.010701   0.033485484812989
             1.9622572    0.23472187088125
            0.44453796    0.81377028525955
 s    1 1.00
            0.12194962                   1
 p    1 1.00
                   0.8                   1

35 0
 s    3 1.00
             13.010701   0.033485484812989
             1.9622572    0.23472187088125
            0.44453796    0.81377028525955
 s    1 1.00
            0.12194962                   1
 p    1 1.00
                   0.8                   1

36 0
 s    5 1.00
          1712.8415853  -0.0054477995804909
          257.64812677  -0.040627174632423
          58.458245853   -0.18111962250584
          16.198367905   -0.46843975563173
          5.0052600809   -0.44616846289231
 s    1 1.00
         0.58731856571                   1
 s    1 1.00
         0.18764592253                   1
 p    3 1.00
          13.571470233  -0.058848116969522
          2.9257372874   -0.32024624762471
         0.79927750754   -0.75328226520436
 p    1 1.00
         0.21954348034                   1
 d    1 1.00
                     1                   1

37 0
 s    3 1.00
             13.010701   0.033485484812989
             1.9622572    0.23472187088125
            0.44453796    0.81377028525955
 s    1 1.00
            0.12194962                   1
 p    1 1.00
                   0.8                   1

38 0
 s    3 1.00
             13.010701   0.033485484812989
             1.9622572    0.23472187088125
            0.44453796    0.81377028525955
 s    1 1.00
            0.12194962                   1
 p    1 1.00
                   0.8                   1

39 0
 s    3 1.00
             13.010701   0.033485484812989
             1.9622572    0.23472187088125
            0.44453796    0.81377028525955
 s    1 1.00
            0.12194962                   1
 p    1 1.00
                   0.8                   1

40 0
 s    5 1.00
          1712.8415853  -0.0054477995804909
          257.64812677  -0.040627174632423
          58.458245853   -0.18111962250584
          16.198367905   -0.46843975563173
          5.0052600809   -0.44616846289231
 s    1 1.00
         0.58731856571                   1
 s    1 1.00
         0.18764592253                   1
 p    3 1.00
          13.571470233  -0.058848116969522
          2.9257372874   -0.32024624762471
         0.79927750754   -0.75328226520436
 p    1 1.00
         0.21954348034                   1
 d    1 1.00
                     1                   1

41 0
 s    3 1.00
             13.010701   0.033485484812989
             1.9622572    0.23472187088125
            0.44453796    0.81377028525955
 s    1 1.00
            0.12194962                   1
 p    1 1.00
                   0.8                   1

42 0
 s    3 1.00
             13.010701   0.033485484812989
             1.9622572    0.23472187088125
            0.44453796    0.81377028525955
 s    1 1.00
            0.12194962                   1
 p    1 1.00
                   0.8                   1

43 0
 s    3 1.00
             13.010701   0.033485484812989
             1.9622572    0.23472187088125
            0.44453796    0.81377028525955
 s    1 1.00
            0.12194962                   1
 p    1 1.00
                   0.8                   1

[5d]
[7f]
[9g]

[MO]
 Sym= A
 Ene=               0
 Spin= Alpha
 Occup=    1.00000
   1    -3.8518963604751e-06
   2    7.9836783375468e-06
   3    -6.660858635675e-05
   4    -0.00027162183703819
   5    0.0016476347627804
   6    0.0047806597519047
   7    0.0043958870512457
   8    -0.0018396772520913
   9    -0.016804327898059
  10    -0.015457225310623
  11    0.0064704470487184
  12     0.060226040473806
  13     0.055534068924774
  14    -0.023241814066721
  15    -0.024047134819205
  16     0.047843526674536
  17     0.014498430144863
  18    -0.075430584861064
  19     0.020356997284206
  20    -0.014878272359936
  21     0.029266962414903
  22    0.0090441598175204
  23    -0.045655793051854
  24     0.012452028023848
  25    -0.00026506467813189
  26    0.0016708146282776
  27    -0.0015188948548001
  28    -0.0043194869740641
  29    0.0019808303844074
  30    0.0012102315487058
  31    -0.0044502045178995
  32    3.1434961780944e-06
  33    -6.0992191170133e-06
  34    5.6626972484847e-05
  35    -5.1532719334777e-05
  36    -0.00082641246948376
  37    0.0047797534031458
  38     0.004397886796785
  39    -0.0018386686937456
  40     -0.01680544992209
  41    -0.015465201961824
  42    0.0064568871843085
  43     0.060319279687459
  44     0.055666400196654
  45    -0.022868812040129
  46     0.024193126935872
  47     -0.04791744277236
  48    -0.014378700181411
  49     0.075397565732862
  50    -0.020209776193717
  51      0.01483650437468
  52    -0.029188338275084
  53    -0.0091047722789824
  54     0.045650315850248
  55    -0.012723372386712
  56    -0.00026758726863595
  57    0.0016702701349795
  58    -0.0015251871796479
  59    -0.0043185195923719
  60    0.0019816010666772
  61    0.0012116964967201
  62    -0.0044480806786265
  63    8.4087335096175e-06
  64    6.5065776739179e-06
  65    7.042263112075e-05
  66      0.39975162643825
  67       0.3669855660029
  68     -0.15435308045026
  69       0.3440068489699
  70      0.31611498964902
  71     -0.13289304353046
  72    -1.0215717189161e-05
  73    5.523827959926e-06
  74    -7.6197819405288e-06
  75    5.7670039185909e-07
  76    -1.9611552349675e-05
  77    -0.0052197067658815
  78    -0.0082369547676392
  79     -0.04618690846804
  80    -0.0089981748475925
  81    0.0044183754482684
  82    -0.0016161554515818
  83     0.012358684042663
  84    -0.0050595070115105
  85     0.018038985307754
  86    -0.00010707865918838
  87    -0.00043156356380028
  88    -5.8766028268836e-05
  89    0.0018603485193202
  90    -0.0014407636734202
  91      0.01320065828745
  92    0.0043183039910105
  93    -0.00017125720684909
  94    1.3891491072996e-05
  95    0.00040150468933622
  96    -0.0021386644506817
  97    -0.0035329679063336
  98    0.0010628215507954
  99    -0.00078132586143132
 100    0.00035435285747421
 101    -0.0055465780911892
 102     0.027794683425475
 103     -0.00363800263786
 104    -0.00072065334881345
 105    -0.00046674856339678
 106    -0.0042452117814103
 107    -0.0081583114981023
 108    -0.027372728629215
 109    -0.0018312981784493
 110    -0.00017461009160118
 111    0.0074052765977326
 112    -0.0024859729433907
 113      0.01301763313179
 114    -0.0085609138164851
 115    0.0015569866724102
 116    -0.00036765676184187
 117    0.00096972829614644
 118    -1.2300843462932e-05
 119    3.4052890536287e-05
 120    -0.0063464845851102
 121     0.004017620533435
 122    -0.00056685673347961
 123    0.00043027964392191
 124    0.0024695365916313
 125     0.010520866505094
 126     0.009978825005709
 127    0.00083635724784995
 128    -0.0001368322977721
 129    0.0004040257477833
 130    -0.0026083904766478
 131    -0.003717422862814
 132    0.00048258181127366
 133    -0.0002102973139954
 134    -0.00094872182987953
 135    0.0043628243656636
 136    0.0066056675415507
 137      0.04057527618781
 138    0.0057615985826853
 139    -0.0062398427554397
 140    0.0027568594518961
 141    -0.015887683485878
 142    0.0020592759939185
 143    -0.013995730673213
 144    0.0006567307859961
 145    -0.0012159120400126
 146    0.00021070128205354
 147    0.0012303827343487
 148    0.00098122176867743
 149    -0.010906377592398
 150    -0.0029749453658077
 151    -4.0902458408051e-05
 152    -0.00026102603219514
 153    -0.00023919549337526
 154    0.0042929046844433
 155     -0.02774061166736
 156    -8.1021842693729e-05
 157    -0.0026699191661058
 158    0.0023098290963479
 159     0.001324511424297
 160    0.0037319857634567
 161    -0.00091856559243522
 162    0.00081996904297895
 163    -0.0004431900139691
 164    0.0050581476730102
 165    0.0096453804542491
 166     0.033386802524143
 167    -0.0040944884323585
 168    -0.0059193751447113
 169    -0.0052552631934171
 170     0.019032613694137
 171    1.1322180956444e-05
 172    0.0006731623810958
 173    -0.00092365371540346
 174    -0.00037836049969176
 175    -0.0017375495185616
 176    0.00084791445322605
 177    -0.00046076724716768
 178    0.0038811004104824
 179    0.0028212457067409
 180    7.0684234511846e-05
 181    0.00094826347140346
 182    0.00034005425543974
 183    -0.013088188131926
 184    -0.011706932912546
 185    -0.00031620581563101
 186     0.000378075463735
 187    -0.00079555989149256
 188     0.007481814136793
 189    -0.0046808767795258
 190    -0.00076310310682741
 191    -0.0018977759914383
 192    -0.0013307069517944
 193    4.3429068940461e-06
 194    -3.9428546756367e-06
 195    0.00020186483869514
 196    0.0018539284876676
 197    0.0016838285764179
 198    -0.0006967293684074
 199    0.00021888554940662
 200    0.00010971197903378
 201    -0.00014892695230695
 202    0.00014070441205818
 203    -0.00015815912455846
 204    -0.00011685613777259
 205    0.00015802862617568
 206    -0.00011289562798706
 207    -0.0012139685228166
 208    -0.003065786281794
 209    0.00019628084538012
 210    -0.0004069272605228
 211    -0.00051564490936191
 212    0.0013890673750143
 213    0.0031893837324472
 214    -0.00019956320666061
 215    0.00057318283244212
 216    0.0004867450021951
 217    -0.00020274817435766
 218    -0.0007478121922139
 219    -9.6505238692937e-05
 220    -0.00026853252864894
 221    6.9864442194537e-05
 222    0.0052694793628208
 223    0.0080690668507867
 224     0.047831278393701
 225    -0.0091452557715462
 226    0.0047356651650354
 227    -0.0013430880435146
 228     0.013248363505633
 229    -0.0066550375359277
 230     0.016781378174672
 231    0.00010468555006361
 232    0.00041205404346253
 233    0.00018661439306442
 234    -0.001875683662727
 235    0.0013741519855155
 236     0.005130219494494
 237    -0.029724370730142
 238    -0.0040143542590979
 239    -0.00071164185882037
 240    -0.00053332775466925
 241    0.0012289047498994
 242    0.0029707788362995
 243    0.0011475094640831
 244    -0.00079971976328751
 245    0.00019537262785119
 246    -0.012735355474172
 247    -0.0035073943600647
 248    -8.1376380465539e-05
 249    -7.1993485452227e-05
 250    0.00045505391427792
 251    0.0042128069491379
 252    0.0082983415851425
 253     0.026162994832159
 254    -0.0014718717009295
 255    -0.00040015579932036
 256     0.007312600102447
 257    -0.0042996480406153
 258      0.01383307598817
 259    -0.0080353066916362
 260    -0.001557173802834
 261    0.00041245165140931
 262    -0.0010015449313018
 263    3.3652949908327e-05
 264    7.8955834631534e-05
 265    -0.010813977615158
 266    -0.010568305876603
 267    0.00077835815352115
 268    -6.9636371735144e-05
 269    0.00047785253354656
 270    0.0066219344494303
 271    -0.0016654623276927
 272    -0.00070961937443236
 273    0.0004599365670513
 274    0.0020225856713429
 275     0.003262113788462
 276    0.0029252826890446
 277    0.0004926557327608
 278    -0.00019747453355357
 279    -0.00077529328086635
 280    -0.005082022167242
 281    -0.0095633962556177
 282    -0.034239161978622
 283    -0.003942415635265
 284    -0.0062183400874749
 285    -0.0052360543785468
 286     0.018527042272358
 287    0.0014067424115219
 288    0.00049121023994715
 289    0.00096454194684665
 290    0.00037706950131981
 291    0.0016741448806142
 292    -0.00083037985571002
 293    0.00052005931450466
 294     0.012871919725871
 295     0.011168447759211
 296    -0.00034329600747768
 297    0.00046791813129587
 298    -0.00076833076475908
 299    -0.003399704470592
 300    -0.003211065522216
 301    0.00012296803842796
 302    0.0010212049639795
 303    0.0004788143036541
 304    -0.0073662873037981
 305    0.0064189559155498
 306    -0.00092506798179646
 307    -0.0020021106946049
 308    -0.001630814025837
 309    -0.004315897137773
 310    -0.0067866621335767
 311    -0.038694740424144
 312    0.0055949715385854
 313    -0.0059911697480377
 314    0.0030147373950049
 315    -0.014944973549391
 316    0.00076590713325106
 317    -0.015331967456059
 318    -0.0006187994048663
 319     0.001169237731378
 320    -0.00013534283281029
 321    -0.0012603303438325
 322    -0.0010658806010675
 323     0.011240251161524
 324    0.0037967217766154
 325    4.8528861635719e-05
 326    -0.00030259142382174
 327    -0.00018344493244836
 328    -0.0020509737468892
 329    -0.0047835743640062
 330    -0.00096815480770275
 331    0.00069410871278191
 332    -0.00054897852320796
 333    -0.0046902832494512
 334     0.025717146808627
 335    -0.00013821214921243
 336    -0.002415875166299
 337    0.0021138457848067
 338    5.2115268706575e-06
 339    3.8745529869249e-05
 340    -0.0001848872531694
 341    0.0018250440131203
 342    0.0017018307263347