[Molden Format]
made by pyscf v[2.1.1]
[Atoms] (AU)
Fe   1   26     3.17068844873907     0.00098706064664     0.12237737881307
O   2   8     0.00000000000000     0.00000000000000    -0.89004350580623
Fe   3   26    -3.17068844873907    -0.00098706064664     0.12237737881307
Cl   4   17     3.53383895113107    -2.07485195383062     3.76228752659000
Cl   5   17     5.54152580550813    -1.85590924879884    -2.78672786652360
Cl   6   17     4.48169216485503     3.92976278472880    -0.95330240907949
Cl   7   17    -3.53383895113107     2.07485195383062     3.76228752659000
Cl   8   17    -5.54152580550813     1.85590924879884    -2.78672786652360
Cl   9   17    -4.48169216485503    -3.92976278472880    -0.95330240907949
[GTO]
1 0
 s    6 1.00
          60923.640643  0.0017552243692958
          9147.8893982   0.013449023284001
          2081.3505927   0.066678874640978
          587.55977067    0.23176348548844
           191.0904399    0.46945550248188
          65.732730112     0.3596824938678
 s    3 1.00
          127.25891928   -0.10723431835929
           14.83091301    0.62971616328466
          6.0653307408    0.44472317896179
 s    3 1.00
           10.44994371   -0.21694289195548
          1.7245228003    0.69457867408393
         0.71772177325    0.43298308896347
 s    1 1.00
        0.091449828308                   1
 s    1 1.00
        0.033706691021                   1
 p    5 1.00
          773.43750995  0.0091440529992506
          182.15149714   0.067887577136571
          57.547272758    0.26167978878504
          20.614988935    0.51088040113251
           7.634855789    0.33235475570224
 p    3 1.00
           3.871932799    0.33193859098144
          1.4924724132     0.5553666555499
         0.56061284958    0.23106034201617
 p    1 1.00
              0.134915                   1
 d    4 1.00
          38.968133419   0.033335938558743
          10.800067078    0.17766212505983
          3.6136457999      0.441281781625
          1.2129967888    0.57089200490673
 d    1 1.00
          0.3652439317                   1
 f    1 1.00
                 1.598                   1

2 0
 s    5 1.00
          2266.1767785  -0.0053893503921743
          340.87010191   -0.04023472138896
          77.363135167   -0.18008184205526
           21.47964494   -0.46828857657651
          6.6589433124   -0.44692617160187
 s    1 1.00
         0.80975975668                   1
 s    1 1.00
         0.25530772234                   1
 p    3 1.00
          17.721504317   0.062630248763161
           3.863550544    0.33331138482352
          1.0480920883    0.74148638308122
 p    1 1.00
         0.27641544411                   1
 d    1 1.00
                   1.2                   1

3 0
 s    6 1.00
          60923.640643  0.0017552243692958
          9147.8893982   0.013449023284001
          2081.3505927   0.066678874640978
          587.55977067    0.23176348548844
           191.0904399    0.46945550248188
          65.732730112     0.3596824938678
 s    3 1.00
          127.25891928   -0.10723431835929
           14.83091301    0.62971616328466
          6.0653307408    0.44472317896179
 s    3 1.00
           10.44994371   -0.21694289195548
          1.7245228003    0.69457867408393
         0.71772177325    0.43298308896347
 s    1 1.00
        0.091449828308                   1
 s    1 1.00
        0.033706691021                   1
 p    5 1.00
          773.43750995  0.0091440529992506
          182.15149714   0.067887577136571
          57.547272758    0.26167978878504
          20.614988935    0.51088040113251
           7.634855789    0.33235475570224
 p    3 1.00
           3.871932799    0.33193859098144
          1.4924724132     0.5553666555499
         0.56061284958    0.23106034201617
 p    1 1.00
              0.134915                   1
 d    4 1.00
          38.968133419   0.033335938558743
          10.800067078    0.17766212505983
          3.6136457999      0.441281781625
          1.2129967888    0.57089200490673
 d    1 1.00
          0.3652439317                   1
 f    1 1.00
                 1.598                   1

4 0
 s    5 1.00
          10449.827566  0.0054265953789407
          1571.7365221   0.040626378128836
          357.12065523    0.18359747852877
          100.25185935    0.47438948768198
          30.812727554    0.43735181104122
 s    3 1.00
          51.923789434  -0.092754154848099
          5.7045760975    0.56380825544207
          2.3508376809    0.50367044629712
 s    1 1.00
         0.44605124672                   1
 s    1 1.00
          0.1684885619                   1
 p    5 1.00
          307.66790569  -0.0088797025588865
          72.102015515  -0.064284071721237
          22.532680262   -0.24288739736006
          7.8991765444   -0.48340836369878
          2.8767268321   -0.38952563875509
 p    1 1.00
         0.77459363955                   1
 p    1 1.00
         0.21037699698                   1
 d    1 1.00
                  0.65                   1

5 0
 s    5 1.00
          10449.827566  0.0054265953789407
          1571.7365221   0.040626378128836
          357.12065523    0.18359747852877
          100.25185935    0.47438948768198
          30.812727554    0.43735181104122
 s    3 1.00
          51.923789434  -0.092754154848099
          5.7045760975    0.56380825544207
          2.3508376809    0.50367044629712
 s    1 1.00
         0.44605124672                   1
 s    1 1.00
          0.1684885619                   1
 p    5 1.00
          307.66790569  -0.0088797025588865
          72.102015515  -0.064284071721237
          22.532680262   -0.24288739736006
          7.8991765444   -0.48340836369878
          2.8767268321   -0.38952563875509
 p    1 1.00
         0.77459363955                   1
 p    1 1.00
         0.21037699698                   1
 d    1 1.00
                  0.65                   1

6 0
 s    5 1.00
          10449.827566  0.0054265953789407
          1571.7365221   0.040626378128836
          357.12065523    0.18359747852877
          100.25185935    0.47438948768198
          30.812727554    0.43735181104122
 s    3 1.00
          51.923789434  -0.092754154848099
          5.7045760975    0.56380825544207
          2.3508376809    0.50367044629712
 s    1 1.00
         0.44605124672                   1
 s    1 1.00
          0.1684885619                   1
 p    5 1.00
          307.66790569  -0.0088797025588865
          72.102015515  -0.064284071721237
          22.532680262   -0.24288739736006
          7.8991765444   -0.48340836369878
          2.8767268321   -0.38952563875509
 p    1 1.00
         0.77459363955                   1
 p    1 1.00
         0.21037699698                   1
 d    1 1.00
                  0.65                   1

7 0
 s    5 1.00
          10449.827566  0.0054265953789407
          1571.7365221   0.040626378128836
          357.12065523    0.18359747852877
          100.25185935    0.47438948768198
          30.812727554    0.43735181104122
 s    3 1.00
          51.923789434  -0.092754154848099
          5.7045760975    0.56380825544207
          2.3508376809    0.50367044629712
 s    1 1.00
         0.44605124672                   1
 s    1 1.00
          0.1684885619                   1
 p    5 1.00
          307.66790569  -0.0088797025588865
          72.102015515  -0.064284071721237
          22.532680262   -0.24288739736006
          7.8991765444   -0.48340836369878
          2.8767268321   -0.38952563875509
 p    1 1.00
         0.77459363955                   1
 p    1 1.00
         0.21037699698                   1
 d    1 1.00
                  0.65                   1

8 0
 s    5 1.00
          10449.827566  0.0054265953789407
          1571.7365221   0.040626378128836
          357.12065523    0.18359747852877
          100.25185935    0.47438948768198
          30.812727554    0.43735181104122
 s    3 1.00
          51.923789434  -0.092754154848099
          5.7045760975    0.56380825544207
          2.3508376809    0.50367044629712
 s    1 1.00
         0.44605124672                   1
 s    1 1.00
          0.1684885619                   1
 p    5 1.00
          307.66790569  -0.0088797025588865
          72.102015515  -0.064284071721237
          22.532680262   -0.24288739736006
          7.8991765444   -0.48340836369878
          2.8767268321   -0.38952563875509
 p    1 1.00
         0.77459363955                   1
 p    1 1.00
         0.21037699698                   1
 d    1 1.00
                  0.65                   1

9 0
 s    5 1.00
          10449.827566  0.0054265953789407
          1571.7365221   0.040626378128836
          357.12065523    0.18359747852877
          100.25185935    0.47438948768198
          30.812727554    0.43735181104122
 s    3 1.00
          51.923789434  -0.092754154848099
          5.7045760975    0.56380825544207
          2.3508376809    0.50367044629712
 s    1 1.00
         0.44605124672                   1
 s    1 1.00
          0.1684885619                   1
 p    5 1.00
          307.66790569  -0.0088797025588865
          72.102015515  -0.064284071721237
          22.532680262   -0.24288739736006
          7.8991765444   -0.48340836369878
          2.8767268321   -0.38952563875509
 p    1 1.00
         0.77459363955                   1
 p    1 1.00
         0.21037699698                   1
 d    1 1.00
                  0.65                   1

[5d]
[7f]
[9g]

[MO]
 Sym= A
 Ene=               0
 Spin= Alpha
 Occup=    1.00000
   1     0.021770152073255
   2    -0.057258847247345
   3       0.3232672195043
   4      0.27230008912429
   5    -0.084270576561285
   6    0.0017224834822337
   7    -0.00092918092414549
   8    -0.0025268404156063
   9    -0.0069283448536128
  10    0.0028472553190545
  11    0.0072345157383039
  12     0.058512857906359
  13    0.0018896927443567
  14     0.015003041028049
  15    0.0075436161461522
  16    -0.012029822099631
  17    -0.016803506174565
  18    -0.0096372071669703
  19    -0.0013480230294447
  20    0.0094546844886159
  21    -0.014352816294464
  22    -0.011385271439342
  23    -0.016490819123614
  24    -0.00079615475852872
  25    0.0021616841534408
  26    0.0014368018409854
  27    -0.002628011412018
  28    -0.0014820100256479
  29    0.00047867176602093
  30    -0.0025447733739935
  31    -0.0009333172208704
  32     0.055361255117489
  33      0.16944842234178
  34      0.13945947285842
  35     0.054611614295427
  36    -0.00088487967826528
  37     0.018376544271149
  38     0.061021513422025
  39    -0.0021418911193889
  40      0.02181905685466
  41    -0.0022240361567889
  42    0.0025959297367293
  43    -8.4383408139524e-05
  44    0.0058361810583256
  45    -3.8640620598483e-06
  46    -0.0016445448318839
  47    0.0040912278970982
  48    -0.025477561136539
  49    -0.003874363820658
  50       0.0190907971916
  51    -0.0016429163058085
  52    -8.4879938859043e-05
  53    0.00032779887380499
  54    0.0049600441010136
  55    0.00028126000311753
  56    -0.00089562121886706
  57     0.017872500172224
  58    -0.0012753029021955
  59    -0.008360675914686
  60    -0.0019355429701409
  61    0.0020564448277274
  62    0.00037198645019076
  63    0.0022010831194197
  64    -0.00010072221006648
  65    -0.0015743240564521
  66    -0.0026503001727041
  67    -0.00079307596724925
  68    0.0041634861288821
  69    -8.6021953724905e-06
  70    0.0001563059965311
  71    -0.00023016818049831
  72    -0.00011558558238024
  73    -0.00028830857761398
  74    -4.1460650700097e-06
  75    0.00044542673673426
  76    -7.0271096297017e-05
  77     0.013123606484947
  78    -0.090511037260592
  79      0.18165675784012
  80      0.10497511792315
  81    -0.0054204900217091
  82     0.035204507245762
  83     -0.05603190950446
  84    -0.011069416008726
  85     0.071662580030332
  86     -0.11657630908112
  87    -0.018518692137721
  88     0.096704776850662
  89     -0.15365721884901
  90     0.010909482100152
  91    0.0016812720329773
  92     -0.01357222049242
  93    -0.0041640141835101
  94    -0.0010698301667564
  95     0.012839960401586
  96    -0.088876751617634
  97       0.1816246332295
  98      0.10111229726388
  99    -0.036213493283435
 100     0.023544798223574
 101     0.043477984253538
 102    -0.075096595422582
 103     0.051683303178403
 104     0.090997895816984
 105     -0.10438902230142
 106      0.06196671718919
 107      0.11858692898158
 108    0.0048794771760892
 109    -0.012081251852897
 110    0.0093314033090069
 111    0.0014274605529343
 112    -0.0072300618601062
 113      0.01252984637454
 114    -0.086473070706122
 115      0.17392801874476
 116     0.099350901703005
 117    -0.020430386388218
 118    -0.056097009929487
 119     0.021990559524998
 120    -0.041614844466794
 121     -0.11737756231306
 122     0.042337130681299
 123    -0.060363225294442
 124     -0.15263342545179
 125     0.062321076496867
 126    -0.0057797238563234
 127    -0.0024826457156823
 128    -0.0077428005320756
 129    -0.011067524298287
 130    0.0072300678278842
 131    -0.00026240768840736
 132    0.0021969684002384
 133    -0.009269480663044
 134    0.00026067251993115
 135    0.0073907180014674
 136      0.00111056631458
 137    0.0015733251864631
 138     0.012604283305133
 139     0.002989221180634
 140    0.0044454628613221
 141     0.021558135112764
 142    0.0021905764074875
 143    0.0037263320244537
 144    -0.00034120443523007
 145    -0.00071046830152285
 146    -0.0001676511405992
 147    0.00026059816130656
 148    -0.00049505514072755
 149    -0.0010038099097348
 150    0.0069318240003048
 151    -0.012962091174499
 152     -0.01399554100917
 153    -0.0011976104616762
 154    0.0021239939508351
 155    -0.0039152177686845
 156    -0.003014341232637
 157    0.0043847217560699
 158    -0.0080172795865954
 159    -0.0053968666601951
 160    0.0070852326968178
 161    -0.011594364542935
 162    -0.00021652997807394
 163    -0.00085966179920624
 164    0.00073343876483516
 165    -0.00016343781683505
 166    0.00064063472872124
 167    -0.00074705916962157
 168     0.005281877375151
 169    -0.011395252674467
 170    -0.0097883438506401
 171    0.0023106714669059
 172    -0.0038849876150685
 173    -0.001409763434604
 174     0.003390974674898
 175    -0.008244424527591
 176    -0.0029785256488004
 177    0.0057652931632558
 178    -0.012651185029594
 179    -0.003531488621682
 180    0.00039240508043723
 181    3.6754013679611e-05
 182    -0.00030696879493257
 183    0.00079543897579471
 184    -0.00030757593351327
 Sym= A
 Ene=               1
 Spin= Alpha
 Occup=    1.00000
   1    -0.0012648736348747
   2    0.0037620972393631
   3    -0.016828089925801
   4     0.031470812260428
   5    -0.013867545453754
   6    -0.00068034137513299
   7    -0.0014721773057409
   8    0.0047813110341116
   9    0.0021551076666168
  10    0.0046496217017222
  11    -0.014849230335735
  12    -0.0023118746152988
  13    -0.0056962300622612
  14     0.021640721651715
  15      -0.2011972859612
  16      0.47912882348693
  17      0.48269656546527
  18     -0.43360233210914
  19     -0.28039286505718
  20    -0.054025354973279
  21      0.12848614632202
  22      0.13066041740466
  23     -0.11767764656243
  24    -0.075361766565481
  25    -0.0010616653061063
  26    0.0010613009492205
  27    0.00098002431891199
  28    0.00025240745933701
  29    0.00029303737297027
  30    -0.00088622092485584
  31    -0.0005705814292448
  32    -0.001885905317097
  33    -0.0050771171175431
  34    -0.0025753307696356
  35    -0.0081522532938323
  36     -0.01410768393875
  37     0.048563960684991
  38    -0.0090124051432962
  39    -0.013771045177161
  40     0.047329655386091
  41    0.00018083101860351
  42    -0.0011890534154473
  43    0.00020364205147197
  44    0.00011866435033856
  45    0.00019541157607737
  46    -0.00051145665046707
  47    0.0015291335311848
  48    -0.0068008852902055
  49    0.0072760719808101
  50    -0.0012863152514356
  51    0.0023667878619192
  52    -0.00051747637484431
  53    0.00083038544907961
  54    -0.0075487947755886
  55    0.0016466001074553
  56    -0.0026518312771887
  57    0.0065116161308471
  58    -0.0030334977235773
  59    0.0084010080989361
  60    -0.0013707564963384
  61    0.00030324578813913
  62    2.7669304614281e-05
  63    0.0022138151470225
  64    -0.00049352082338156
  65    -0.0013782677054986
  66    0.0021573938707749
  67    0.00015816086090998
  68     0.000825261695976
  69    -0.000805397437433
  70    -5.1306197401762e-05
  71    -0.00038403266526162
  72    -1.6778118953543e-05
  73    9.3941495585357e-05
  74    6.1507468676363e-05
  75    0.00027407961036288
  76    -0.00011801411656736
  77    0.0013706065432259
  78    -0.0089879763532999
  79      0.01138176329937
  80    0.0065601091597563
  81    -0.018090820481772
  82    0.0080117511267744
  83    -0.010018100788529
  84    -0.030678782836587
  85     0.013822004561256
  86    -0.017456305638007
  87    -0.050554774722232
  88     0.022171159354951
  89    -0.027819947682861
  90    0.00048860303763148
  91    -0.0019700440600117
  92    0.00044859856760791
  93    -0.0008730643143186
  94    0.0012436255683129
  95    -8.4256394139048e-05
  96    0.00057301830185096
  97    -0.0022623246024422
  98    0.0044739742820482
  99      0.01180872692362
 100     0.025693342443585
 101    -0.0080054978666485
 102     0.019934933906607
 103     0.043305385962446
 104      -0.0133519233108
 105     0.031923838469899
 106     0.073866984658575
 107     -0.02221298091136
 108    0.00070574076208546
 109    -0.0013544810213667
 110    -0.0016599415897677
 111    0.0020505165668194
 112    0.0012700033986328
 113    -0.00020303514204531
 114    0.0013446112587557
 115    -0.0030943558470681
 116     0.002586003706804
 117     0.013255190537039
 118    -0.0077676902934784
 119    -0.021915214743375
 120     0.022222265356228
 121    -0.013085777661414
 122    -0.036776899785513
 123     0.037169519235066
 124    -0.023044836431182
 125    -0.062082960316991
 126    0.00098890979529266
 127    -0.0012745470685189
 128    -0.0015503538980016
 129      0.00167379614588
 130    0.00080004908412771
 131    -0.00021833700363512
 132    0.0014749073903915
 133    -0.0027521691161975
 134    -0.0014358998156152
 135    -0.0015148885983505
 136    0.00081431190998081
 137    0.00074939396621695
 138    -0.002798029997885
 139    0.0013940562815894
 140    0.0013117549084542
 141    -0.0036453578268512
 142    0.0031935937161437
 143     0.002973968733557
 144    -0.00010363884272422
 145    -0.00030584135613482
 146    5.4217459740563e-05
 147    0.0001725452267209
 148    -0.00024415778095694
 149    7.9467403135419e-05
 150    -0.00052330496739369
 151    0.00040528546163669
 152    0.0032147021812797
 153    0.0010753926547433
 154    7.0608246489674e-05
 155    -0.00068506641845055
 156    0.0018707909305865
 157    0.00017012441978338
 158    -0.0012309814849564
 159     0.003638621417872
 160    -0.00079901268073778
 161    -0.00049730261993374
 162    4.3438026067377e-05
 163    0.00013843402180738
 164    -5.3095103177489e-05
 165    -9.3078511743097e-05
 166    -2.9899181065148e-05
 167    -9.6399195521157e-05
 168    0.00065264601420766
 169    -0.0013794828527306
 170    0.00029387307788521
 171    -0.00072130037688963
 172    -0.00038075718927959
 173    -0.00077776301788365
 174    -0.0013146782989487
 175    -0.00069593805329885
 176    -0.0012824757248715
 177    -0.0018876684467868
 178    -0.00087156189478336
 179    -0.0026516506468609
 180    -0.000103738084707
 181    0.0001336277035077
 182    1.4161145485605e-05
 183    0.00010300056172298
 184    0.00017682465956931
 Sym= A
 Ene=               2
 Spin= Alpha
 Occup=    1.00000
   1    -0.00083682413816824
   2    0.0024894016467145
   3    -0.011126913712566
   4     0.021098547719832
   5    -0.0074921346844256
   6    -4.9052067671461e-05
   7    0.0064894792371731
   8    0.0032777903985391
   9    0.00013186142654875
  10    -0.019951311392417
  11    -0.010008928735918
  12    0.00093631828855779
  13     0.028039565201155
  14     0.015585993002426
  15      0.52483587513576
  16        0.154946335099
  17      0.46399310970305
  18      0.13088251399646
  19      0.48661440909293
  20      0.14101807780437
  21     0.040846374636408
  22      0.12463302031689
  23      0.03475711562892
  24      0.12918051332602
  25    0.00059737376004348
  26    0.0013448505619795
  27    0.0005541825405137
  28    0.00066992350323455
  29    0.0017022305333197
  30    7.9047774554407e-05
  31    0.0015109402997223
  32    -0.0022539682197617
  33    -0.0058693886643772
  34    -0.0029128355030686
  35    -0.0087528918548705
  36     0.074735117094914
  37     0.041611061018309
  38    -0.0098158016716562
  39     0.072098592301474
  40     0.040707156361516
  41    0.00061152139262175
  42    -0.0012249039737254
  43    0.0011115769831638
  44    0.00049758225829408
  45    -0.0016928566580428
  46    -0.00050190991930919
  47    0.0014881175884402
  48    -0.0067278901451782
  49     0.008204506736136
  50    -0.0019834962810307
  51    0.0021225344646225
  52    0.0021935347201664
  53    0.00050372226336181
  54    -0.0067722367256437
  55    -0.0069821909076625
  56    -0.0016145200810678
  57    0.0053341720725696
  58     0.014015997637521
  59    0.0068134321059305
  60    -0.0013923939886939
  61    -0.00017699306807585
  62    -0.00037437219845395
  63    0.0017765192569176
  64    0.0018392106852757
  65    -0.0012026902691058
  66    0.0018659898865702
  67    -0.0011808592704579
  68    0.00056081022125472
  69    0.0048008257888859
  70    -2.1943459221134e-05
  71    -0.00032757659214494
  72    -0.0001419167074302
  73    0.00011381068814337
  74    -0.00034481737442389
  75    0.00026143836445783
  76    0.00065424386584412
  77    7.8856027306557e-05
  78    -0.00051188573185281
  79    0.00011445376370442
  80    0.00098342191292101
  81    0.0031689100725664
  82    -0.022885370891433
  83    -0.013937342142773
  84    0.0053251343107361
  85     -0.03859741339479
  86    -0.023621841251794
  87    0.0090156801658952
  88    -0.065478089523241
  89    -0.039894202176803
  90    -0.0025940489065209
  91    0.00043804045939368
  92    -0.0013265057231464
  93    -0.0014291516270479
  94    -0.00011449221148493
  95    -0.00043039425576552
  96    0.0028735385242559
  97    -0.0053675271388916
  98    0.0035332830042057
  99     0.016261692828148
 100    -0.0098743847636135
 101     0.013849110105256
 102      0.02760477641708
 103    -0.016581787826016
 104     0.023263513506935
 105     0.043886979122456
 106    -0.028284451136222
 107     0.040317892947903
 108    -0.0024044330590692
 109    -2.3376664252464e-05
 110    6.1841353361858e-06
 111    0.00087107092589156
 112    -0.0012549044989793
 113     0.001090251005809
 114    -0.0071418405856064
 115    0.0094073011565239
 116    0.0032929475581757
 117    -0.015813254772369
 118    -0.0090247698183062
 119    -0.0077957544718463
 120    -0.026687129118831
 121    -0.015483489883526
 122     -0.01305548317504
 123    -0.044056624894849
 124    -0.024908334005081
 125    -0.022728158429079
 126    0.00094910294488473
 127    0.00021332679914422
 128    -0.0011541073477243
 129    -0.00079423339568989
 130    -0.0011684920119482
 131    -0.0002851122011087
 132    0.0018868934737012
 133    -0.0025226057809135
 134    -0.0052220623990742
 135    -0.0023859051519924
 136    -4.9573498164167e-05
 137      0.00190084337053
 138    -0.0041938004633197
 139    -0.00013483160661508
 140    0.0032185644745324
 141    -0.0064260425438119
 142    0.0011134336525008
 143    0.0079092059648122
 144    -3.2786026556311e-05
 145    -0.00053142691457695
 146    -5.5968615660771e-05
 147    0.00028989126086405
 148    -8.7932283788179e-05
 149    -9.5486775084191e-05
 150    0.00064089762457435
 151    -0.0012378263250579
 152    -9.5278161978026e-05
 153    -0.00086088195994387
 154    -0.00045491989487294
 155    -0.00077583676269796
 156    -0.0015439156913908
 157    -0.00064812225266504
 158    -0.0012444969448966
 159    -0.0023758694603399
 160    -0.0023028627819152
 161    -0.0028037159076332
 162    -0.0001725243656466
 163    0.0001244069428737
 164    -2.060763850303e-05
 165    0.00012125150778033
 166    2.3577659679057e-05
 167    0.00027002641678796
 168    -0.0017971273878837
 169    0.0026228911870925
 170    0.0044681588236649
 171    0.0030062818925418
 172    0.00083113503502699
 173    -0.00082097692121889
 174      0.00539869371737
 175    0.0013876163531032
 176    -0.0014856763714824
 177    0.0077268894916347
 178    0.0046256355970642
 179    -0.0013507539802247
 180    0.00012520457006146
 181    0.0002168870811007
 182    0.00018682631833238
 183    -0.00052515254657365
 184    -0.00020541432093111
 Sym= A
 Ene=               3
 Spin= Alpha
 Occup=    1.00000
   1    -0.00059805913402607
   2    0.0017843801811411
   3    -0.0079405129978122
   4    0.0099856707826162
   5    0.0018812221968633
   6    -0.002314856565806
   7    -0.0045290567817524
   8    0.0042635305634144
   9    0.0071713000873922
  10     0.014312320756426
  11    -0.013565328045361
  12    -0.0063234684230379
  13    -0.007564879040471
  14    0.0061354097485705
  15     -0.55586286682337
  16     -0.37303363446489
  17       0.3013407728181
  18     -0.11366596094272
  19      0.46203279800785
  20     -0.14559391504668
  21    -0.096223363800683
  22     0.078738649924672
  23    -0.031189187795512
  24      0.11903131980311
  25    -0.00019364913991443
  26    -0.0018344552207178
  27    -5.5639375777931e-05
  28    -0.0015842007394504
  29    0.0013353839217369
  30    0.00022395451409656
  31    0.0018717988463807
  32    0.0049779309310912
  33     0.012119265739721
  34    0.0095433189310396
  35     0.023556137622562
  36       0.0790816807712
  37    -0.071343912440893
  38     0.026687096551188
  39       0.0774440898454
  40    -0.069523994166603
  41    -0.0006874205146329
  42    0.0020750952680398
  43    0.0011104733099532
  44    -0.0011146548206255
  45    -0.0018367057172325
  46    0.00096905908571135
  47    -0.0028708168709283
  48     0.013008350833773
  49    -0.014151292461306
  50    0.0045762820102029
  51    -0.0042455776232324
  52    0.0025148346200344
  53    -0.001041338045421
  54     0.013610507867781
  55    -0.0080031100994635
  56    0.0033418895880503
  57    -0.012846264471532
  58     0.015320866664686
  59    -0.013551873860824
  60    0.0022855188689338
  61    0.00056871158928307
  62    -0.00039625748309122
  63    -0.0041553857162752
  64    0.0019919998846679
  65    0.0022133258474514
  66    -0.0031721760930289
  67    -0.0015613104124283
  68    -0.0021261413572201
  69    0.0050401551184128
  70    2.2135022654003e-05
  71    0.00059030450952102
  72    -6.394798008392e-05
  73    -2.0810252238738e-05
  74    -0.00036734156484953
  75    -0.00047518760314247
  76    0.00069041612402324
  77    0.0036798394233727
  78    -0.024117240116002
  79     0.030099879147883
  80     0.030377989250804
  81     0.010527696394912
  82     0.027798562242204
  83    -0.029927419965384
  84     0.017567347722927
  85     0.047309241368495
  86    -0.051348232069965
  87     0.029870561885071
  88     0.083003016490059
  89    -0.091755787672233
  90    0.0011883222860528
  91    0.0018042783573589
  92    -4.2382347767873e-05
  93    -1.7160724929195e-06
  94    -0.00041654043727993
  95    -0.00048663704742908
  96    0.0031577204134324
  97    -0.0034224964014275
  98    -0.0057917543479005
  99    0.00065942525560708
 100    0.0051712506492602
 101    -0.011276417260337
 102    0.0011584525779905
 103    0.0089343894737702
 104    -0.019217937384073
 105    0.0026734278999719
 106     0.013338865507056
 107    -0.032106658405542
 108    0.00081955038322564
 109    -0.00044289121125543
 110    -0.00033972564265336
 111    0.00037762309290142
 112    0.0015536896164064
 113    -0.002884654847051
 114     0.018781463669028
 115    -0.022583097239105
 116    -0.025814914385347
 117    -0.00053958209838538
 118     0.029102843438167
 119    -0.021818174992992
 120    -0.00065285656861494
 121     0.049104120230102
 122    -0.036488680465493
 123    -0.00015519377986168
 124     0.088008055659748
 125    -0.063892146276529
 126    0.0007053485699728
 127    -0.00026564430691826
 128    -0.00015628349711568
 129    0.0011071266163416
 130    -0.0019089635275141
 131    0.00016016757330354
 132    -0.0010715611562632
 133    0.0016149749472422
 134     0.002346872409301
 135    0.00035682252608145
 136    -0.0015008504365168
 137    -0.00043151949882548
 138    0.00061196382889508
 139    -0.0023709648926692
 140    -0.00078675554208797
 141    0.0018400415112573
 142    -0.0063559956641522
 143    -0.0018373958554011
 144    4.0671792460818e-05
 145    0.00030345809918216
 146    -0.00013072250714621
 147    -4.8343709375939e-05
 148    0.00030683514690495
 149    -0.00018369474254545
 150    0.0012074534026631
 151    -0.00097070773791566
 152    -0.0071137570629767
 153    -0.0025918360241832
 154    -0.00053124639835658
 155    0.00090515688039969
 156    -0.0045276585273867
 157    -0.0009714691973045
 158     0.001755533179863
 159    -0.0084298514287503
 160    0.00016413380412107
 161     -0.00101499020323
 162    -0.00015045668323967
 163    -0.00028347143130026
 164    0.00012996296547311
 165    0.00018655554642122
 166    0.00015786754355531
 167    0.0003877522463526
 168    -0.0025981422396503
 169    0.0045241741816738
 170     0.002875124169254
 171    0.0032252994958751
 172     0.001462582395629
 173    0.00096936369722267
 174    0.0057155308240866
 175    0.0026078100221024
 176    0.0014599567362305
 177    0.0092156372760706
 178    0.0051095175292301
 179    0.0045317656387367
 180    0.00037827030587559
 181    -0.0001060926611609
 182      0.00010203185018
 183    -0.00049466951804243