[Molden Format]
made by pyscf v[2.1.1]
[Atoms] (AU)
Fe   1   26     3.17068844873907     0.00098706064664     0.12237737881307
O   2   8     0.00000000000000     0.00000000000000    -0.89004350580623
Fe   3   26    -3.17068844873907    -0.00098706064664     0.12237737881307
Cl   4   17     3.53383895113107    -2.07485195383062     3.76228752659000
Cl   5   17     5.54152580550813    -1.85590924879884    -2.78672786652360
Cl   6   17     4.48169216485503     3.92976278472880    -0.95330240907949
Cl   7   17    -3.53383895113107     2.07485195383062     3.76228752659000
Cl   8   17    -5.54152580550813     1.85590924879884    -2.78672786652360
Cl   9   17    -4.48169216485503    -3.92976278472880    -0.95330240907949
[GTO]
1 0
 s    6 1.00
          60923.640643  0.0017552243692958
          9147.8893982   0.013449023284001
          2081.3505927   0.066678874640978
          587.55977067    0.23176348548844
           191.0904399    0.46945550248188
          65.732730112     0.3596824938678
 s    3 1.00
          127.25891928   -0.10723431835929
           14.83091301    0.62971616328466
          6.0653307408    0.44472317896179
 s    3 1.00
           10.44994371   -0.21694289195548
          1.7245228003    0.69457867408393
         0.71772177325    0.43298308896347
 s    1 1.00
        0.091449828308                   1
 s    1 1.00
        0.033706691021                   1
 p    5 1.00
          773.43750995  0.0091440529992506
          182.15149714   0.067887577136571
          57.547272758    0.26167978878504
          20.614988935    0.51088040113251
           7.634855789    0.33235475570224
 p    3 1.00
           3.871932799    0.33193859098144
          1.4924724132     0.5553666555499
         0.56061284958    0.23106034201617
 p    1 1.00
              0.134915                   1
 d    4 1.00
          38.968133419   0.033335938558743
          10.800067078    0.17766212505983
          3.6136457999      0.441281781625
          1.2129967888    0.57089200490673
 d    1 1.00
          0.3652439317                   1
 f    1 1.00
                 1.598                   1

2 0
 s    5 1.00
          2266.1767785  -0.0053893503921743
          340.87010191   -0.04023472138896
          77.363135167   -0.18008184205526
           21.47964494   -0.46828857657651
          6.6589433124   -0.44692617160187
 s    1 1.00
         0.80975975668                   1
 s    1 1.00
         0.25530772234                   1
 p    3 1.00
          17.721504317   0.062630248763161
           3.863550544    0.33331138482352
          1.0480920883    0.74148638308122
 p    1 1.00
         0.27641544411                   1
 d    1 1.00
                   1.2                   1

3 0
 s    6 1.00
          60923.640643  0.0017552243692958
          9147.8893982   0.013449023284001
          2081.3505927   0.066678874640978
          587.55977067    0.23176348548844
           191.0904399    0.46945550248188
          65.732730112     0.3596824938678
 s    3 1.00
          127.25891928   -0.10723431835929
           14.83091301    0.62971616328466
          6.0653307408    0.44472317896179
 s    3 1.00
           10.44994371   -0.21694289195548
          1.7245228003    0.69457867408393
         0.71772177325    0.43298308896347
 s    1 1.00
        0.091449828308                   1
 s    1 1.00
        0.033706691021                   1
 p    5 1.00
          773.43750995  0.0091440529992506
          182.15149714   0.067887577136571
          57.547272758    0.26167978878504
          20.614988935    0.51088040113251
           7.634855789    0.33235475570224
 p    3 1.00
           3.871932799    0.33193859098144
          1.4924724132     0.5553666555499
         0.56061284958    0.23106034201617
 p    1 1.00
              0.134915                   1
 d    4 1.00
          38.968133419   0.033335938558743
          10.800067078    0.17766212505983
          3.6136457999      0.441281781625
          1.2129967888    0.57089200490673
 d    1 1.00
          0.3652439317                   1
 f    1 1.00
                 1.598                   1

4 0
 s    5 1.00
          10449.827566  0.0054265953789407
          1571.7365221   0.040626378128836
          357.12065523    0.18359747852877
          100.25185935    0.47438948768198
          30.812727554    0.43735181104122
 s    3 1.00
          51.923789434  -0.092754154848099
          5.7045760975    0.56380825544207
          2.3508376809    0.50367044629712
 s    1 1.00
         0.44605124672                   1
 s    1 1.00
          0.1684885619                   1
 p    5 1.00
          307.66790569  -0.0088797025588865
          72.102015515  -0.064284071721237
          22.532680262   -0.24288739736006
          7.8991765444   -0.48340836369878
          2.8767268321   -0.38952563875509
 p    1 1.00
         0.77459363955                   1
 p    1 1.00
         0.21037699698                   1
 d    1 1.00
                  0.65                   1

5 0
 s    5 1.00
          10449.827566  0.0054265953789407
          1571.7365221   0.040626378128836
          357.12065523    0.18359747852877
          100.25185935    0.47438948768198
          30.812727554    0.43735181104122
 s    3 1.00
          51.923789434  -0.092754154848099
          5.7045760975    0.56380825544207
          2.3508376809    0.50367044629712
 s    1 1.00
         0.44605124672                   1
 s    1 1.00
          0.1684885619                   1
 p    5 1.00
          307.66790569  -0.0088797025588865
          72.102015515  -0.064284071721237
          22.532680262   -0.24288739736006
          7.8991765444   -0.48340836369878
          2.8767268321   -0.38952563875509
 p    1 1.00
         0.77459363955                   1
 p    1 1.00
         0.21037699698                   1
 d    1 1.00
                  0.65                   1

6 0
 s    5 1.00
          10449.827566  0.0054265953789407
          1571.7365221   0.040626378128836
          357.12065523    0.18359747852877
          100.25185935    0.47438948768198
          30.812727554    0.43735181104122
 s    3 1.00
          51.923789434  -0.092754154848099
          5.7045760975    0.56380825544207
          2.3508376809    0.50367044629712
 s    1 1.00
         0.44605124672                   1
 s    1 1.00
          0.1684885619                   1
 p    5 1.00
          307.66790569  -0.0088797025588865
          72.102015515  -0.064284071721237
          22.532680262   -0.24288739736006
          7.8991765444   -0.48340836369878
          2.8767268321   -0.38952563875509
 p    1 1.00
         0.77459363955                   1
 p    1 1.00
         0.21037699698                   1
 d    1 1.00
                  0.65                   1

7 0
 s    5 1.00
          10449.827566  0.0054265953789407
          1571.7365221   0.040626378128836
          357.12065523    0.18359747852877
          100.25185935    0.47438948768198
          30.812727554    0.43735181104122
 s    3 1.00
          51.923789434  -0.092754154848099
          5.7045760975    0.56380825544207
          2.3508376809    0.50367044629712
 s    1 1.00
         0.44605124672                   1
 s    1 1.00
          0.1684885619                   1
 p    5 1.00
          307.66790569  -0.0088797025588865
          72.102015515  -0.064284071721237
          22.532680262   -0.24288739736006
          7.8991765444   -0.48340836369878
          2.8767268321   -0.38952563875509
 p    1 1.00
         0.77459363955                   1
 p    1 1.00
         0.21037699698                   1
 d    1 1.00
                  0.65                   1

8 0
 s    5 1.00
          10449.827566  0.0054265953789407
          1571.7365221   0.040626378128836
          357.12065523    0.18359747852877
          100.25185935    0.47438948768198
          30.812727554    0.43735181104122
 s    3 1.00
          51.923789434  -0.092754154848099
          5.7045760975    0.56380825544207
          2.3508376809    0.50367044629712
 s    1 1.00
         0.44605124672                   1
 s    1 1.00
          0.1684885619                   1
 p    5 1.00
          307.66790569  -0.0088797025588865
          72.102015515  -0.064284071721237
          22.532680262   -0.24288739736006
          7.8991765444   -0.48340836369878
          2.8767268321   -0.38952563875509
 p    1 1.00
         0.77459363955                   1
 p    1 1.00
         0.21037699698                   1
 d    1 1.00
                  0.65                   1

9 0
 s    5 1.00
          10449.827566  0.0054265953789407
          1571.7365221   0.040626378128836
          357.12065523    0.18359747852877
          100.25185935    0.47438948768198
          30.812727554    0.43735181104122
 s    3 1.00
          51.923789434  -0.092754154848099
          5.7045760975    0.56380825544207
          2.3508376809    0.50367044629712
 s    1 1.00
         0.44605124672                   1
 s    1 1.00
          0.1684885619                   1
 p    5 1.00
          307.66790569  -0.0088797025588865
          72.102015515  -0.064284071721237
          22.532680262   -0.24288739736006
          7.8991765444   -0.48340836369878
          2.8767268321   -0.38952563875509
 p    1 1.00
         0.77459363955                   1
 p    1 1.00
         0.21037699698                   1
 d    1 1.00
                  0.65                   1

[5d]
[7f]
[9g]

[MO]
 Sym= A
 Ene=               0
 Spin= Alpha
 Occup=    1.00000
   1    0.0023629287378327
   2    -0.0066195135034065
   3     0.033385694402517
   4    -0.0094140773359027
   5    -0.0024019662409043
   6    0.0064453911806243
   7    -0.018277622309661
   8    -0.019503548776018
   9    -0.020604739329931
  10     0.056513346946604
  11     0.060357762350855
  12     0.028930616444725
  13    -0.050604880054355
  14    -0.054766633458755
  15     0.020269503760312
  16    -0.046641992888833
  17     0.083516359869345
  18     0.047626922920187
  19    -0.051854774563807
  20     0.012195908721007
  21    -0.031758629893296
  22     0.054722838521935
  23     0.030534128929882
  24    -0.034894145108382
  25    0.00010234089356806
  26    0.00098409529524172
  27    0.00059517905067864
  28    -0.00047350819421339
  29    0.0022281161114385
  30    0.00078938553021753
  31    -0.00051472496264248
  32    6.0861429142756e-17
  33    9.3278548982142e-17
  34    8.497575620881e-17
  35    -0.0022223870559808
  36      -0.0129961148812
  37    5.2315880941595e-17
  38    0.00044764445200747
  39    -0.0040663711375736
  40    5.8828325025478e-17
  41    7.5714326090688e-19
  42    -0.00069723686159904
  43    0.00045459126533672
  44    2.9698802539378e-18
  45    -2.8228714890556e-18
  46    -0.0023629287378327
  47    0.0066195135034065
  48    -0.033385694402517
  49    0.0094140773359026
  50    0.0024019662409044
  51    0.0064453911806243
  52    -0.018277622309661
  53     0.019503548776018
  54    -0.020604739329931
  55     0.056513346946604
  56    -0.060357762350855
  57     0.028930616444725
  58    -0.050604880054354
  59     0.054766633458755
  60    -0.020269503760312
  61    -0.046641992888833
  62     0.083516359869345
  63    -0.047626922920186
  64     0.051854774563806
  65    -0.012195908721007
  66    -0.031758629893296
  67     0.054722838521935
  68    -0.030534128929882
  69     0.034894145108382
  70    -0.00010234089356806
  71    0.00098409529524172
  72    0.00059517905067864
  73    0.00047350819421339
  74    -0.0022281161114385
  75    0.00078938553021752
  76    -0.00051472496264248
  77    -0.0035903503174529
  78     0.022111092755566
  79    -0.026840186932979
  80    -0.0045931856203442
  81    0.00032250442462994
  82    0.0082828784447035
  83     0.070347105060959
  84    0.00041073384682769
  85     0.014502122855694
  86      0.11779642222576
  87    -0.0018372311074175
  88     0.031504435318955
  89      0.17121728197036
  90    -0.0066033364683649
  91    -0.001134170061539
  92    0.0045865562388902
  93    0.00057444718725657
  94    -0.00020022186118093
  95    0.0097404180689249
  96    -0.061950409929171
  97     0.089749960019922
  98     0.025375163437676
  99    -0.066547447720782
 100     0.062135191077335
 101      0.09262831714703
 102     -0.11311804995534
 103      0.10558249280388
 104      0.15678472097791
 105     -0.15744567727619
 106      0.15227545472169
 107      0.22444801724225
 108    0.0065650097638022
 109    -0.012305927330815
 110    0.0097376815119971
 111    0.0037479282261729
 112    -0.0066628099075586
 113    -0.005934582865932
 114     0.036989057668691
 115    -0.046587176488138
 116    -0.016858992401744
 117     0.026855188649298
 118      0.09148792643217
 119    0.0042794175014725
 120      0.04517485785346
 121      0.15230415301075
 122    0.0077935829042933
 123     0.061048171929512
 124      0.22794412872203
 125     0.018293724983602
 126    0.0044194519407955
 127    0.0012666144929257
 128    0.0065887770762423
 129    0.0069049364399603
 130    -0.0066027970452408
 131     0.003590350317453
 132    -0.022111092755566
 133     0.026840186932978
 134    0.0045931856203441
 135    0.00032250442462989
 136    0.0082828784447035
 137    -0.070347105060959
 138    0.00041073384682762
 139     0.014502122855694
 140     -0.11779642222576
 141    -0.0018372311074176
 142     0.031504435318955
 143     -0.17121728197036
 144    0.0066033364683649
 145    -0.001134170061539
 146    0.0045865562388902
 147    -0.00057444718725657
 148    0.00020022186118094
 149    -0.0097404180689249
 150     0.061950409929171
 151    -0.089749960019922
 152    -0.025375163437676
 153    -0.066547447720781
 154     0.062135191077335
 155     -0.09262831714703
 156     -0.11311804995534
 157      0.10558249280388
 158     -0.15678472097791
 159     -0.15744567727619
 160      0.15227545472169
 161     -0.22444801724225
 162    -0.0065650097638021
 163    -0.012305927330815
 164    0.0097376815119971
 165    -0.0037479282261729
 166    0.0066628099075586
 167    0.0059345828659324
 168    -0.036989057668691
 169     0.046587176488137
 170     0.016858992401744
 171     0.026855188649298
 172     0.091487926432169
 173    -0.0042794175014725
 174      0.04517485785346
 175      0.15230415301075
 176    -0.0077935829042933
 177     0.061048171929512
 178      0.22794412872203
 179    -0.018293724983602
 180    -0.0044194519407955
 181    0.0012666144929257
 182    0.0065887770762422
 183    -0.0069049364399603
 184    0.0066027970452408
 Sym= A
 Ene=               1
 Spin= Alpha
 Occup=    1.00000
   1    0.0018789969637574
   2    -0.0051061570757185
   3     0.027334035975059
   4    -0.011791963408465
   5    0.0063216682602138
   6    0.0031063590099393
   7    -0.020053357943916
   8    -0.018845477784116
   9    -0.010785845633797
  10     0.061872000031733
  11     0.058334530423184
  12     0.018825889443384
  13    -0.056698963413999
  14    -0.052531655597766
  15     0.025393992283972
  16    -0.040196578225402
  17     0.081069787090803
  18     0.048842342116929
  19    -0.054245300553057
  20     0.015475662474679
  21    -0.026811137045367
  22     0.052559068674903
  23     0.033000348166997
  24    -0.036370881442963
  25    0.00029679253012195
  26    0.0010384921083722
  27    0.00056629604255816
  28    -0.00074770596777149
  29     0.002210456640989
  30    0.00070372075314792
  31    -0.00042761416710168
  32     0.017080519963828
  33     0.041097785382498
  34     0.033204240638627
  35    4.8681425388239e-19
  36    3.6607001856737e-17
  37    -0.018452590690205
  38    -6.4919106512574e-18
  39    1.7340124901331e-17
  40    -0.010070447700279
  41    -0.00067182346606736
  42    1.6228623584908e-18
  43    -1.102638821599e-18
  44    0.0013535609284368
  45    -0.0011492255495236
  46    0.0018789969637574
  47    -0.0051061570757185
  48     0.027334035975059
  49    -0.011791963408465
  50    0.0063216682602139
  51    -0.0031063590099393
  52     0.020053357943916
  53    -0.018845477784116
  54     0.010785845633797
  55    -0.061872000031733
  56     0.058334530423184
  57    -0.018825889443384
  58     0.056698963413999
  59    -0.052531655597767
  60     0.025393992283972
  61     0.040196578225403
  62    -0.081069787090803
  63     0.048842342116929
  64    -0.054245300553057
  65     0.015475662474679
  66     0.026811137045367
  67    -0.052559068674904
  68     0.033000348166997
  69    -0.036370881442963
  70    0.00029679253012195
  71    -0.0010384921083722
  72    -0.00056629604255816
  73    -0.00074770596777149
  74    0.0022104566409891
  75    -0.00070372075314792
  76    0.00042761416710169
  77    -0.003257140492693
  78     0.020081458757531
  79    -0.024339145470273
  80    -0.0062746881876202
  81    0.0013469271721941
  82     0.013350391382066
  83     0.066849551859612
  84    0.0023545539677153
  85     0.022792048781565
  86      0.11187888013055
  87    0.00018605539780773
  88     0.044450199924458
  89       0.1644097688241
  90    -0.0062442928902884
  91    -0.001499157857989
  92     0.003925221522576
  93    4.2357417616673e-06
  94    -5.1372517688869e-05
  95    0.0095263597890852
  96    -0.060567818176824
  97     0.087856150946449
  98     0.022883192691573
  99    -0.066783835658771
 100     0.062443416965983
 101     0.088725372923147
 102     -0.11341610210086
 103      0.10581010281286
 104      0.14998999270122
 105     -0.15794498767646
 106      0.15465290711769
 107      0.21524234686442
 108    0.0063060119108502
 109    -0.012161447935653
 110    0.0095083910511569
 111    0.0038906475558009
 112    -0.0067155802635004
 113    -0.0063493859721718
 114     0.039624854584887
 115    -0.050199945313299
 116    -0.019114386060369
 117     0.023909792662737
 118     0.097144498111672
 119    -0.00015742495035519
 120      0.04015067046708
 121      0.16226116758445
 122    0.00034959742744855
 123     0.053655423123841
 124      0.24000759194902
 125    0.0070541339273112
 126    0.0044953403435306
 127    0.0013430684285927
 128    0.0072047059457676
 129    0.0074370783396551
 130    -0.0065527286653125
 131    -0.003257140492693
 132     0.020081458757531
 133    -0.024339145470273
 134    -0.0062746881876203
 135    -0.0013469271721941
 136    -0.013350391382066
 137     0.066849551859612
 138    -0.0023545539677153
 139    -0.022792048781565
 140      0.11187888013055
 141    -0.00018605539780775
 142    -0.044450199924458
 143       0.1644097688241
 144    -0.0062442928902884
 145     0.001499157857989
 146    -0.0039252215225761
 147    4.2357417616734e-06
 148    -5.1372517688869e-05
 149    0.0095263597890852
 150    -0.060567818176824
 151      0.08785615094645
 152     0.022883192691573
 153     0.066783835658771
 154    -0.062443416965983
 155     0.088725372923148
 156      0.11341610210086
 157     -0.10581010281286
 158      0.14998999270122
 159      0.15794498767646
 160     -0.15465290711769
 161      0.21524234686442
 162    0.0063060119108502
 163     0.012161447935653
 164    -0.009508391051157
 165    0.0038906475558009
 166    -0.0067155802635004
 167    -0.0063493859721718
 168     0.039624854584887
 169    -0.050199945313299
 170    -0.019114386060369
 171    -0.023909792662737
 172    -0.097144498111673
 173    -0.00015742495035512
 174     -0.04015067046708
 175     -0.16226116758445
 176    0.00034959742744864
 177    -0.053655423123842
 178     -0.24000759194902
 179    0.0070541339273113
 180    0.0044953403435306
 181    -0.0013430684285927
 182    -0.0072047059457676
 183    0.0074370783396551
 184    -0.0065527286653125
 Sym= A
 Ene=               2
 Spin= Alpha
 Occup=    1.00000
   1    0.0031372966555852
   2    -0.0090686077151181
   3     0.042982627753547
   4    -0.0092611846388964
   5     0.011821335225405
   6    0.0039721663291142
   7     0.017458420748602
   8    -0.016833747552589
   9    -0.012713148229663
  10    -0.054967352015281
  11     0.053221991210701
  12     0.023728370858234
  13     0.055271474896269
  14    -0.054008124067534
  15    -0.074789991214893
  16    -0.013349982753049
  17     0.035817914313841
  18    -0.024051078554422
  19     0.018972804354697
  20    -0.053602151378603
  21    -0.011019528143751
  22     0.026361114651285
  23    -0.017962654488126
  24     0.012377672477264
  25    -0.00048209368311984
  26    -0.0011038258946391
  27    0.00085717642375896
  28    0.00089791182542502
  29    0.00057454660741145
  30    -0.0011498275995389
  31    -0.00068596448400898
  32    1.3548228581251e-15
  33    2.8118319660829e-15
  34    2.4623116859038e-15
  35    0.0010366883539645
  36     0.012524346731778
  37    -2.7879532980592e-16
  38     0.002105919718377
  39    0.0020936844248411
  40    -5.4404519439541e-17
  41    -4.6504338986224e-17
  42    -0.00019429633687165
  43    0.00071853610540062
  44    6.3605916473478e-17
  45    5.7505999913878e-18
  46    -0.0031372966555852
  47    0.0090686077151178
  48    -0.042982627753545
  49    0.0092611846388949
  50    -0.011821335225405
  51    0.0039721663291146
  52     0.017458420748602
  53     0.016833747552588
  54    -0.012713148229664
  55    -0.054967352015279
  56      -0.0532219912107
  57     0.023728370858233
  58     0.055271474896268
  59     0.054008124067533
  60     0.074789991214891
  61     -0.01334998275305
  62      0.03581791431384
  63     0.024051078554422
  64    -0.018972804354696
  65     0.053602151378602
  66    -0.011019528143751
  67     0.026361114651284
  68     0.017962654488126
  69    -0.012377672477264
  70    0.00048209368311984
  71    -0.0011038258946391
  72    0.00085717642375892
  73    -0.00089791182542502
  74    -0.00057454660741145
  75    -0.0011498275995388
  76    -0.00068596448400896
  77    -0.0079314911418758
  78      0.04915900508145
  79    -0.059548277938797
  80    -0.019162251130879
  81    0.0017897070725875
  82    -0.093982850052847
  83     0.087632267879545
  84    0.0033010306506355
  85     -0.15684482149868
  86      0.14638014917465
  87    -0.00061640146023244
  88     -0.23333057968048
  89      0.20387941464103
  90    -0.0074476892635711
  91    -0.0011339105152072
  92     0.015512348523496
  93    0.0059513297896727
  94    0.00042811821492183
  95    0.0010272564824678
  96    -0.0070009815460894
  97     0.015587695764616
  98    -0.0025745221435545
  99    0.0054314050824832
 100    -0.043580878333676
 101     0.047703704095729
 102    0.0081539202060822
 103    -0.071728867550935
 104     0.081290269992905
 105     0.015363465272886
 106     -0.12201336010418
 107      0.12366642442437
 108    0.0034075903472021
 109    -0.0016735573048451
 110    0.00020407914502462
 111    0.00043267918334597
 112    0.0017226090788217
 113    0.0062546951474895
 114    -0.039786954864348
 115     0.057355157687112
 116     0.015806680806217
 117    -0.019884445033031
 118    -0.071860252457085
 119     0.072039401749945
 120    -0.033612421957632
 121     -0.12216834469117
 122      0.12008772541525
 123    -0.047904109325082
 124     -0.17234291109739
 125      0.18880710264768
 126    -0.002044865401606
 127    -0.0025929891091045
 128      -0.0108943205541
 129    -0.0069504197846197
 130    0.0049169571172722
 131    0.0079314911418757
 132    -0.049159005081448
 133     0.059548277938795
 134     0.019162251130879
 135    0.0017897070725867
 136    -0.093982850052844
 137    -0.087632267879543
 138    0.0033010306506341
 139     -0.15684482149868
 140     -0.14638014917465
 141    -0.00061640146023439
 142     -0.23333057968047
 143     -0.20387941464102
 144    0.0074476892635709
 145    -0.0011339105152072
 146     0.015512348523496
 147    -0.0059513297896726
 148    -0.00042811821492178
 149    -0.0010272564824678
 150    0.0070009815460895
 151    -0.015587695764616
 152    0.0025745221435544
 153    0.0054314050824826
 154    -0.043580878333674
 155    -0.047703704095728
 156    0.0081539202060812
 157    -0.071728867550933
 158    -0.081290269992903
 159     0.015363465272885
 160     -0.12201336010418
 161     -0.12366642442437
 162    -0.0034075903472021
 163    -0.0016735573048451
 164    0.00020407914502466
 165    -0.00043267918334597
 166    -0.0017226090788217
 167    -0.0062546951474893
 168     0.039786954864347
 169     -0.05735515768711
 170    -0.015806680806217
 171    -0.019884445033031
 172    -0.071860252457084
 173    -0.072039401749943
 174    -0.033612421957633
 175     -0.12216834469116
 176     -0.12008772541525
 177    -0.047904109325082
 178     -0.17234291109739
 179     -0.18880710264768
 180     0.002044865401606
 181    -0.0025929891091045
 182      -0.0108943205541
 183    0.0069504197846196
 184    -0.0049169571172721
 Sym= A
 Ene=               3
 Spin= Alpha
 Occup=    1.00000
   1    -0.0021561438013204
   2    0.0062696954027904
   3    -0.029396573802083
   4    -0.011498971681796
   5    -0.0079144045685288
   6    -0.008287608249797
   7     -0.01698890243784
   8     0.017091205622426
   9     0.025672771477563
  10      0.05324960119035
  11    -0.054268711458047
  12    -0.022399200977759
  13    -0.051457261028742
  14     0.057867528923999
  15     0.063619681133058
  16     0.022422217777622
  17    -0.040431888970407
  18     0.035097191640524
  19    -0.019405928354447
  20     0.046283054975605
  21     0.015780908587974
  22    -0.029005168671755
  23     0.024779068274513
  24     -0.01394973810063
  25    0.00051888536922575
  26    0.0011736673575125
  27    -0.00055751998403654
  28    -0.0010871912638769
  29    -0.00082127174867577
  30    0.00084042561332542
  31    0.00082035155085351
  32     0.033184812182195
  33     0.055127925480553
  34     0.055116020047896
  35    2.1611827073725e-17
  36    1.4356683237267e-16
  37     0.013341011902992
  38    3.217809081278e-17
  39    2.7417008403016e-17
  40    0.0037958011246238
  41    0.00062121137524271
  42    -1.8003228938057e-18
  43    7.8802223221519e-18
  44    0.0014129072866973
  45    -0.00063298654914112
  46    -0.0021561438013205
  47    0.0062696954027906
  48    -0.029396573802084
  49    -0.011498971681796
  50    -0.007914404568529
  51    0.0082876082497971
  52     0.016988902437841
  53     0.017091205622426
  54    -0.025672771477563
  55    -0.053249601190351
  56    -0.054268711458048
  57      0.02239920097776
  58     0.051457261028744
  59        0.057867528924
  60     0.063619681133059
  61    -0.022422217777622
  62     0.040431888970408
  63     0.035097191640524
  64    -0.019405928354448
  65     0.046283054975606
  66    -0.015780908587975
  67     0.029005168671756
  68     0.024779068274514
  69     -0.01394973810063
  70    0.00051888536922576
  71    -0.0011736673575125
  72    0.00055751998403656
  73    -0.0010871912638769
  74    -0.00082127174867578
  75    -0.00084042561332545
  76    -0.00082035155085352
  77      0.00742790079015
  78    -0.045953659234937
  79     0.053820503867872
  80     0.022936573105087
  81      0.01270892817608
  82     0.087947423718601
  83    -0.085386208843146
  84     0.021654475549905
  85      0.14649860877379
  86     -0.14253811311833
  87     0.036194409461742
  88      0.21952943584037
  89     -0.20107920622163
  90    0.0069867651989336
  91    0.00021751671975919
  92     -0.01477487137471
  93    -0.0053093730623397
  94    -1.0397918315795e-05
  95    -0.0022548087294358
  96     0.014657580521195
  97    -0.025652257857975
  98    0.0012999168703406
  99     0.021751108065327
 100     0.038154880315268
 101    -0.048687716312343
 102     0.037514268590044
 103     0.062798352928985
 104    -0.082624175928869
 105     0.052324089562094
 106      0.10920261507513
 107     -0.12422904281597
 108    -0.0030456066008932
 109    0.0042938249837504
 110    -0.0012801333152421
 111    -0.0014211927364452
 112    -7.1987289403076e-05
 113    -0.0064409914992977
 114     0.040893000397578
 115    -0.059023603418917
 116    -0.013074228383511
 117     0.024012568081028
 118     0.074525058363835
 119    -0.073736285377687
 120     0.040666820375518
 121      0.12660600116865
 122     -0.12288676980597
 123     0.057387013365247
 124      0.17679728848892
 125     -0.19313612451871
 126    0.0021838605097284
 127    0.0027506240942547
 128     0.011006197568631
 129    0.0075930339250711
 130    -0.0054011426604984
 131    0.0074279007901501
 132    -0.045953659234938
 133     0.053820503867873
 134     0.022936573105087
 135     -0.01270892817608
 136    -0.087947423718603
 137    -0.085386208843148
 138    -0.021654475549905
 139     -0.14649860877379
 140     -0.14253811311833
 141    -0.036194409461742
 142     -0.21952943584037
 143     -0.20107920622164
 144    0.0069867651989338
 145    -0.00021751671975921
 146     0.014774871374711
 147    -0.0053093730623398
 148    -1.0397918315804e-05
 149    -0.0022548087294358
 150     0.014657580521195
 151    -0.025652257857976
 152    0.0012999168703406
 153    -0.021751108065327
 154    -0.038154880315269
 155    -0.048687716312344
 156    -0.037514268590044
 157    -0.062798352928987
 158    -0.082624175928871
 159    -0.052324089562093
 160     -0.10920261507514
 161     -0.12422904281597
 162    -0.0030456066008933
 163    -0.0042938249837505
 164    0.0012801333152421
 165    -0.0014211927364452
 166    -7.1987289403113e-05
 167    -0.0064409914992979
 168     0.040893000397578
 169    -0.059023603418919
 170    -0.013074228383511
 171    -0.024012568081028
 172    -0.074525058363837
 173    -0.073736285377689
 174    -0.040666820375519
 175     -0.12660600116866
 176     -0.12288676980597
 177    -0.057387013365248
 178     -0.17679728848892
 179     -0.19313612451871
 180    0.0021838605097285
 181    -0.0027506240942548
 182    -0.011006197568631
 183    0.0075930339250713
 184    -0.0054011426604985
 Sym= A
 Ene=               4
 Spin= Alpha
 Occup=    1.00000
   1    0.0054070881574496
   2    -0.013932669909838
   3     0.082379475070516
   4     -0.10367460150964