[Molden Format]
made by pyscf v[2.1.1]
[Atoms] (AU)
Fe   1   26     3.17068844873907     0.00098706064664     0.12237737881307
O   2   8     0.00000000000000     0.00000000000000    -0.89004350580623
Fe   3   26    -3.17068844873907    -0.00098706064664     0.12237737881307
Cl   4   17     3.53383895113107    -2.07485195383062     3.76228752659000
Cl   5   17     5.54152580550813    -1.85590924879884    -2.78672786652360
Cl   6   17     4.48169216485503     3.92976278472880    -0.95330240907949
Cl   7   17    -3.53383895113107     2.07485195383062     3.76228752659000
Cl   8   17    -5.54152580550813     1.85590924879884    -2.78672786652360
Cl   9   17    -4.48169216485503    -3.92976278472880    -0.95330240907949
[GTO]
1 0
 s    6 1.00
          60923.640643  0.0017552243692958
          9147.8893982   0.013449023284001
          2081.3505927   0.066678874640978
          587.55977067    0.23176348548844
           191.0904399    0.46945550248188
          65.732730112     0.3596824938678
 s    3 1.00
          127.25891928   -0.10723431835929
           14.83091301    0.62971616328466
          6.0653307408    0.44472317896179
 s    3 1.00
           10.44994371   -0.21694289195548
          1.7245228003    0.69457867408393
         0.71772177325    0.43298308896347
 s    1 1.00
        0.091449828308                   1
 s    1 1.00
        0.033706691021                   1
 p    5 1.00
          773.43750995  0.0091440529992506
          182.15149714   0.067887577136571
          57.547272758    0.26167978878504
          20.614988935    0.51088040113251
           7.634855789    0.33235475570224
 p    3 1.00
           3.871932799    0.33193859098144
          1.4924724132     0.5553666555499
         0.56061284958    0.23106034201617
 p    1 1.00
              0.134915                   1
 d    4 1.00
          38.968133419   0.033335938558743
          10.800067078    0.17766212505983
          3.6136457999      0.441281781625
          1.2129967888    0.57089200490673
 d    1 1.00
          0.3652439317                   1
 f    1 1.00
                 1.598                   1

2 0
 s    5 1.00
          2266.1767785  -0.0053893503921743
          340.87010191   -0.04023472138896
          77.363135167   -0.18008184205526
           21.47964494   -0.46828857657651
          6.6589433124   -0.44692617160187
 s    1 1.00
         0.80975975668                   1
 s    1 1.00
         0.25530772234                   1
 p    3 1.00
          17.721504317   0.062630248763161
           3.863550544    0.33331138482352
          1.0480920883    0.74148638308122
 p    1 1.00
         0.27641544411                   1
 d    1 1.00
                   1.2                   1

3 0
 s    6 1.00
          60923.640643  0.0017552243692958
          9147.8893982   0.013449023284001
          2081.3505927   0.066678874640978
          587.55977067    0.23176348548844
           191.0904399    0.46945550248188
          65.732730112     0.3596824938678
 s    3 1.00
          127.25891928   -0.10723431835929
           14.83091301    0.62971616328466
          6.0653307408    0.44472317896179
 s    3 1.00
           10.44994371   -0.21694289195548
          1.7245228003    0.69457867408393
         0.71772177325    0.43298308896347
 s    1 1.00
        0.091449828308                   1
 s    1 1.00
        0.033706691021                   1
 p    5 1.00
          773.43750995  0.0091440529992506
          182.15149714   0.067887577136571
          57.547272758    0.26167978878504
          20.614988935    0.51088040113251
           7.634855789    0.33235475570224
 p    3 1.00
           3.871932799    0.33193859098144
          1.4924724132     0.5553666555499
         0.56061284958    0.23106034201617
 p    1 1.00
              0.134915                   1
 d    4 1.00
          38.968133419   0.033335938558743
          10.800067078    0.17766212505983
          3.6136457999      0.441281781625
          1.2129967888    0.57089200490673
 d    1 1.00
          0.3652439317                   1
 f    1 1.00
                 1.598                   1

4 0
 s    5 1.00
          10449.827566  0.0054265953789407
          1571.7365221   0.040626378128836
          357.12065523    0.18359747852877
          100.25185935    0.47438948768198
          30.812727554    0.43735181104122
 s    3 1.00
          51.923789434  -0.092754154848099
          5.7045760975    0.56380825544207
          2.3508376809    0.50367044629712
 s    1 1.00
         0.44605124672                   1
 s    1 1.00
          0.1684885619                   1
 p    5 1.00
          307.66790569  -0.0088797025588865
          72.102015515  -0.064284071721237
          22.532680262   -0.24288739736006
          7.8991765444   -0.48340836369878
          2.8767268321   -0.38952563875509
 p    1 1.00
         0.77459363955                   1
 p    1 1.00
         0.21037699698                   1
 d    1 1.00
                  0.65                   1

5 0
 s    5 1.00
          10449.827566  0.0054265953789407
          1571.7365221   0.040626378128836
          357.12065523    0.18359747852877
          100.25185935    0.47438948768198
          30.812727554    0.43735181104122
 s    3 1.00
          51.923789434  -0.092754154848099
          5.7045760975    0.56380825544207
          2.3508376809    0.50367044629712
 s    1 1.00
         0.44605124672                   1
 s    1 1.00
          0.1684885619                   1
 p    5 1.00
          307.66790569  -0.0088797025588865
          72.102015515  -0.064284071721237
          22.532680262   -0.24288739736006
          7.8991765444   -0.48340836369878
          2.8767268321   -0.38952563875509
 p    1 1.00
         0.77459363955                   1
 p    1 1.00
         0.21037699698                   1
 d    1 1.00
                  0.65                   1

6 0
 s    5 1.00
          10449.827566  0.0054265953789407
          1571.7365221   0.040626378128836
          357.12065523    0.18359747852877
          100.25185935    0.47438948768198
          30.812727554    0.43735181104122
 s    3 1.00
          51.923789434  -0.092754154848099
          5.7045760975    0.56380825544207
          2.3508376809    0.50367044629712
 s    1 1.00
         0.44605124672                   1
 s    1 1.00
          0.1684885619                   1
 p    5 1.00
          307.66790569  -0.0088797025588865
          72.102015515  -0.064284071721237
          22.532680262   -0.24288739736006
          7.8991765444   -0.48340836369878
          2.8767268321   -0.38952563875509
 p    1 1.00
         0.77459363955                   1
 p    1 1.00
         0.21037699698                   1
 d    1 1.00
                  0.65                   1

7 0
 s    5 1.00
          10449.827566  0.0054265953789407
          1571.7365221   0.040626378128836
          357.12065523    0.18359747852877
          100.25185935    0.47438948768198
          30.812727554    0.43735181104122
 s    3 1.00
          51.923789434  -0.092754154848099
          5.7045760975    0.56380825544207
          2.3508376809    0.50367044629712
 s    1 1.00
         0.44605124672                   1
 s    1 1.00
          0.1684885619                   1
 p    5 1.00
          307.66790569  -0.0088797025588865
          72.102015515  -0.064284071721237
          22.532680262   -0.24288739736006
          7.8991765444   -0.48340836369878
          2.8767268321   -0.38952563875509
 p    1 1.00
         0.77459363955                   1
 p    1 1.00
         0.21037699698                   1
 d    1 1.00
                  0.65                   1

8 0
 s    5 1.00
          10449.827566  0.0054265953789407
          1571.7365221   0.040626378128836
          357.12065523    0.18359747852877
          100.25185935    0.47438948768198
          30.812727554    0.43735181104122
 s    3 1.00
          51.923789434  -0.092754154848099
          5.7045760975    0.56380825544207
          2.3508376809    0.50367044629712
 s    1 1.00
         0.44605124672                   1
 s    1 1.00
          0.1684885619                   1
 p    5 1.00
          307.66790569  -0.0088797025588865
          72.102015515  -0.064284071721237
          22.532680262   -0.24288739736006
          7.8991765444   -0.48340836369878
          2.8767268321   -0.38952563875509
 p    1 1.00
         0.77459363955                   1
 p    1 1.00
         0.21037699698                   1
 d    1 1.00
                  0.65                   1

9 0
 s    5 1.00
          10449.827566  0.0054265953789407
          1571.7365221   0.040626378128836
          357.12065523    0.18359747852877
          100.25185935    0.47438948768198
          30.812727554    0.43735181104122
 s    3 1.00
          51.923789434  -0.092754154848099
          5.7045760975    0.56380825544207
          2.3508376809    0.50367044629712
 s    1 1.00
         0.44605124672                   1
 s    1 1.00
          0.1684885619                   1
 p    5 1.00
          307.66790569  -0.0088797025588865
          72.102015515  -0.064284071721237
          22.532680262   -0.24288739736006
          7.8991765444   -0.48340836369878
          2.8767268321   -0.38952563875509
 p    1 1.00
         0.77459363955                   1
 p    1 1.00
         0.21037699698                   1
 d    1 1.00
                  0.65                   1

[5d]
[7f]
[9g]

[MO]
 Sym= A
 Ene=               0
 Spin= Alpha
 Occup=    1.00000
   1    0.0016450162112948
   2    -0.0040926820360911
   3     0.025483611487378
   4    0.0038733146657259
   5    -0.019095136761097
   6    -0.0016365913832911
   7    -8.4729207723221e-05
   8    -0.00032720172826638
   9     0.004940353910447
  10    0.00028079312026378
  11    0.00089383731794435
  12     0.017889562660374
  13    -0.0012749898709464
  14     0.008360863195501
  15    0.0019339447713699
  16     0.002259409860627
  17    0.00036097641467084
  18    -0.0020973486848417
  19    0.00010092079067731
  20    0.0015734535499002
  21    -0.0025963479316715
  22    -0.00079578808352963
  23    -0.0041354271827491
  24    8.7291141704307e-06
  25    -0.00015680391716172
  26    -0.00022990455380289
  27    -0.00011570513699167
  28    0.00028922071990746
  29    4.2587879303719e-06
  30    0.00044593728064626
  31    -7.0350828176353e-05
  32    -0.055368498408944
  33       -0.169463398606
  34     -0.13947992622067
  35     0.054576338041675
  36    -0.00088569689131419
  37     -0.01836806770506
  38     0.060981652272096
  39    -0.0021426054614755
  40    -0.021812782375134
  41      0.00222368390008
  42    0.0025952562259309
  43    -8.4416297900717e-05
  44    -0.0058354204319422
  45    3.8920912484772e-06
  46     -0.02177086155951
  47      0.05726091909592
  48     -0.32327688421283
  49     -0.27229095308602
  50     0.084273330401473
  51     0.001725063933886
  52    -0.00092919523458398
  53    0.0025261650366203
  54    -0.0069367131379809
  55    0.0028472979300205
  56    -0.0072323711452376
  57      0.05852044325134
  58    0.0018898049143846
  59    -0.015001641755143
  60    -0.007545028754015
  61    -0.012031704034598
  62    -0.016803466749596
  63    0.0096403140388184
  64    0.0013480303338747
  65    -0.0094553657037259
  66    -0.014352902086139
  67    -0.011385071426062
  68     0.016491934625753
  69    0.00079613025984805
  70    -0.0021615506474483
  71     0.001436716763218
  72    -0.0026280413880043
  73    0.0014818022821221
  74    -0.00047867468208153
  75    -0.0025445494067707
  76    -0.00093333626661587
  77    0.00026235578961076
  78    -0.0021966209801777
  79    0.0092688746120922
  80    -0.0002604871142449
  81    0.0073833846132805
  82    0.0011086413179754
  83    -0.0015728637003831
  84     0.012591861434626
  85    0.0029859638739593
  86    -0.0044446596047471
  87      0.02153697561555
  88    0.0021849983696071
  89    -0.0037248278083015
  90    0.00034108822026874
  91    -0.00071135191786265
  92    -0.00016777087786524
  93    -0.00026066331486844
  94    0.00049563851073946
  95    0.0010046622108153
  96    -0.0069374140378522
  97     0.012969472825794
  98     0.014001082760993
  99    -0.0012045182080123
 100      0.00212766579914
 101    0.0039201941469346
 102    -0.0030261697194053
 103    0.0043910812576599
 104    0.0080258978288901
 105    -0.0054169906126313
 106    0.0070954995011572
 107      0.01160837708882
 108    0.00021686344609746
 109    -0.00085964495252084
 110    0.00073369520282432
 111    0.00016338032253938
 112    -0.00064065794006684
 113    0.00074758417028182
 114    -0.0052852997945429
 115     0.011399455049742
 116     0.009792590921583
 117    0.0023063571422204
 118    -0.0038895291517837
 119     0.001410227735558
 120    0.0033836868471411
 121    -0.0082521934735465
 122    0.0029792914185328
 123       0.0057524431113
 124    -0.012664180530175
 125    0.0035330570688715
 126    -0.00039234642587253
 127    3.6884236304813e-05
 128    -0.00030721826205978
 129    -0.0007957415035436
 130    0.00030728364748937
 131     -0.01312369852653
 132      0.09051163033725
 133     -0.18165712137859
 134     -0.10497808312064
 135    -0.0054204237209211
 136     0.035204887420181
 137     0.056032425472017
 138    -0.011069329354806
 139     0.071663180250206
 140      0.11657712189369
 141    -0.018518922476022
 142     0.096706461132138
 143      0.15365966899682
 144    -0.010909432983813
 145    0.0016810732708926
 146    -0.013572197758014
 147    0.0041640424499594
 148     0.001069720161362
 149    -0.012840062397096
 150     0.088877425360856
 151     -0.18162575664681
 152     -0.10111276426663
 153    -0.036214112858785
 154     0.023545036261155
 155    -0.043478381977797
 156    -0.075097757629765
 157     0.051683795312762
 158    -0.090998630146565
 159     -0.10439044779502
 160      0.06196682824677
 161     -0.11858753282966
 162    -0.0048796139949823
 163    -0.012081084916116
 164    0.0093313591308628
 165    -0.0014272555627762
 166    0.0072298975882411
 167    -0.012529958723737
 168     0.086473806048665
 169     -0.17392898444347
 170    -0.099352421565583
 171     -0.02043087588184
 172    -0.056097633176719
 173    -0.021990741927975
 174    -0.041615693764025
 175     -0.11737868552488
 176    -0.042337403464451
 177     -0.06036491449467
 178     -0.15263504661639
 179    -0.062321799891461
 180    0.0057795715531137
 181    -0.0024826328499775
 182    -0.0077428308055165
 183     0.011067554646183
 184    -0.0072297591232803
 Sym= A
 Ene=               1
 Spin= Alpha
 Occup=    1.00000
   1    0.00052574718285242
   2    -0.0015699611397413
   3    0.0070002761516838
   4    -0.0074469133637673
   5    0.0013408820059472
   6    0.0024284752523046
   7    -0.00052538474187849
   8    -0.00083763859105725
   9    -0.007750889304662
  10     0.001672050522307
  11    0.0026746112166331
  12    0.0067288818571278
  13    -0.0030768697790553
  14    -0.0085391237510718
  15    0.0012752476237259
  16    0.00071361451318011
  17    7.1256961768704e-06
  18    -0.0019590585414238
  19    0.00060759095846168
  20    0.0014003379904641
  21    0.0023066272816262
  22    0.00015476322268171
  23    -0.00081310669889188
  24    0.00085977518250456
  25    4.9495296781912e-05
  26    -0.00039237230054939
  27    -1.7782681149689e-05
  28    -9.1369602086267e-05
  29    -6.2287381418587e-05
  30    0.0002837544881529
  31    -0.00012035643886889
  32     0.001881224392007
  33    0.0050967824899045
  34    0.0025537362739658
  35    -0.0086483864574173
  36    -0.014399737334499
  37    -0.049584912401241
  38    -0.0094574936068667
  39    -0.014021458953777
  40    -0.048219577465631
  41    -0.00020486316905429
  42    -0.0012000329439867
  43    0.00019746568071875
  44    -0.00011826104500841
  45    -0.00019572921819602
  46    0.0012624744301203
  47    -0.0037551393587939
  48     0.016795124211708
  49    -0.031469241005746
  50     0.013929159754873
  51    -0.00067801989818973
  52    -0.0014776969243751
  53    -0.0048082400533787
  54    0.0021473194318768
  55    0.0046677566308155
  56     0.014936499479725
  57    -0.0023346540058876
  58    -0.0057445578952482
  59     -0.02180971077122
  60      0.20129517106655
  61      0.47894349029458
  62      0.48273038468828
  63      0.43357080796752
  64      0.28034089306659
  65     0.054083637159277
  66      0.12836789478001
  67      0.13067659564535
  68      0.11765350448461
  69     0.075327869636357
  70     0.001065844247507
  71    0.0010670254540596
  72    0.0009805420132512
  73    -0.00025921590584693
  74    -0.00029218080058168
  75    -0.00088712756817916
  76    -0.00057294546750057
  77    0.00022416267764513
  78    -0.0015135706917008
  79    0.0028146549671718
  80    0.0014910300546579
  81    -0.0015525845512036
  82    0.00083853258399262
  83    -0.00078408711078623
  84    -0.0028636664714482
  85    0.0014347027400519
  86    -0.0013731405350189
  87    -0.0037564121711725
  88    0.0032801898889928
  89    -0.0030828535322021
  90    0.00010629936762643
  91    -0.00031181266244709
  92    5.1473369940306e-05
  93    -0.00017675522226467
  94    0.00024837522436149
  95    -7.7414905229396e-05
  96    0.00050917068203363
  97    -0.00037031699472347
  98    -0.0032623783308347
  99    0.0010522168374066
 100    7.6967851531228e-05
 101    0.00069412193201385
 102    0.0018311212911123
 103    0.0001837840539081
 104    0.0012500879606893
 105    0.0035837885988264
 106    -0.00080130671440144
 107    0.00049861149640351
 108    -4.5390890782489e-05
 109    0.00014082319635266
 110    -5.5476550257666e-05
 111    9.5034400006612e-05
 112    3.0585928588238e-05
 113    0.00010070385587299
 114    -0.00068137262240717
 115    0.0014329182470778
 116    -0.00028895002826621
 117    -0.0007540613949695
 118    -0.00040693526168253
 119    0.00078926538832536
 120    -0.0013704755683743
 121    -0.00074411085746185
 122    0.0013015297540416
 123    -0.0019864325341899
 124    -0.00093053526507017
 125    0.0026917331389219
 126    0.0001061455963229
 127    0.00013540675860165
 128    1.2870041137012e-05
 129    -0.00010585473386369
 130    -0.00017965845961223
 131    -0.0013678035584264
 132    0.0089692200279297
 133      -0.0113472159199
 134    -0.0065346706052613
 135    -0.018071071002527
 136    0.0080035130446543
 137     0.010004455761354
 138    -0.030642159346652
 139     0.013808768520062
 140     0.017432577010398
 141    -0.050506291704119
 142     0.022134070917469
 143     0.027766976736334
 144    -0.00048518765508544
 145    -0.0019647057151719
 146    0.00045177383655048
 147    0.00086838258957853
 148    -0.0012409574592881
 149    8.1874417973923e-05
 150    -0.00055759288552194
 151    0.0022451853854139
 152    -0.0045303465858834
 153     0.011791107071823
 154     0.025701019821941
 155     0.008004409990459
 156     0.019903133944114
 157     0.043317402259194
 158      0.01335024568318
 159     0.031869058145116
 160      0.07390337775234
 161     0.022203306601204
 162    -0.00070917396953898
 163    -0.0013556838870248
 164    -0.0016571099531063
 165    -0.0020452239765589
 166    -0.0012718934556323
 167    0.00020085753321174
 168    -0.0013304927193229
 169    0.0030810232176876
 170    -0.0026417318873993
 171     0.013244289074946
 172    -0.007778235910773
 173     0.021922872778981
 174     0.022201994792739
 175    -0.013102657677148
 176     0.036790145236995
 177     0.037137998769828
 178    -0.023095633897203
 179     0.062105478462269
 180    -0.00098988202211829
 181    -0.0012773991190261
 182    -0.0015530998885759
 183    -0.0016691708624332
 184    -0.00079496551670619
 Sym= A
 Ene=               2
 Spin= Alpha
 Occup=    1.00000
   1    -0.00051488386678967
   2    0.0015250851956294
   3    -0.0069092981550289
   4    0.0083677278956658
   5    -0.0020154024739491
   6    -0.0021767133921722
   7    -0.0022255628418241
   8     0.000505741540364
   9     0.006949709563099
  10    0.0070862501130524
  11    -0.0016208243378258
  12    -0.0055215115667533
  13    -0.014249605127664
  14     0.006923098931194
  15    -0.0013746745541519
  16    -0.00013052209251997
  17    0.00042130816661738
  18     0.001450597465253
  19     0.002172037845581
  20    -0.0012381715548099
  21    -0.0019759921292522
  22     0.001219663772685
  23    0.00051704361605402
  24    0.0049898545264963
  25    -2.0144247768306e-05
  26    0.00033436569514344
  27    0.00014483022917016
  28    0.0001114796808827
  29    -0.00034979232149773
  30    -0.00027010086598327
  31    -0.00066390636762673
  32    -0.0022475313026181
  33    -0.0058798220546722
  34    -0.0028871779012439
  35    0.0092134906474297
  36    -0.076074828114266
  37     0.042438557353672
  38     0.010232396908209
  39    -0.073251892293628
  40     0.041430301992406
  41    0.0006310211087397
  42    0.0012348060622077
  43    -0.0011389830084398
  44    0.00049702379072395
  45    -0.0016929106717188
  46    -0.00083342290456619
  47    0.0024797521680668
  48    -0.011079234985407
  49     0.021070785978406
  50    -0.0075544874454283
  51    4.4083534921427e-05
  52    -0.0065214085801404
  53     0.003302305572503
  54    -0.00011512250578612
  55     0.020054897095384
  56    -0.010088176955894
  57    -0.00092727162541989
  58    -0.028261432745253
  59     0.015721005170289
  60      0.52478932055674
  61     -0.15477636684332
  62     -0.46394355936488
  63      0.13091969094681
  64      0.48633748051779
  65      0.14098167839222
  66    -0.040740914575317
  67     -0.12459804480263
  68     0.034781653379668
  69      0.12900282189579
  70    0.00059363468181128
  71    -0.0013496030883449
  72    -0.00055241028456455
  73    0.00067544106556424
  74    0.0017073268108691
  75    -7.8919435583088e-05
  76    -0.0015208093559276
  77    -0.00029241024822828
  78     0.001935103546176
  79    -0.0025939930889074
  80    -0.0053213216343687
  81    0.0024305960511341
  82    3.7291192546636e-05
  83    0.0019501618089949
  84    0.0042739426971406
  85    0.00011350757764614
  86    0.0033027775045581
  87    0.0065491834916967
  88    -0.0011618850822337
  89    0.0080870273776048
  90    -3.6912561723885e-05
  91    0.00054286618864383
  92    6.1547700548092e-05
  93    0.00029642306679849
  94    -9.0980720904468e-05
  95    -9.889550907501e-05
  96    0.00066368637964063
  97    -0.0012810804692746
  98    -9.731256830176e-05
  99    0.00089671669533183
 100    0.00045666199862854
 101    -0.00078704217930843
 102    0.0016063835670803
 103    0.00064709637628307
 104    -0.0012643295539727
 105    0.0024753977314451
 106    0.0023337956455062
 107    -0.002835857317976
 108    -0.0001769492268187
 109    -0.00012587917807783
 110    2.1442540771173e-05
 111    0.00012321720365648
 112    2.4108999593284e-05
 113    0.00027012554007575
 114    -0.0017976788199936
 115    0.0026167625596169
 116    0.0045238249331815
 117    -0.0030061173154247
 118    -0.00081786899302265
 119    -0.00082798201335846
 120    -0.0054029751402692
 121    -0.0013606466552861
 122    -0.0014994880832206
 123    -0.0077189260507312
 124    -0.004632949862761
 125    -0.0013589826220008
 126    0.00012663964075381
 127    -0.00021916989331083
 128    -0.00019121917952933
 129    -0.00053504387156506
 130    -0.00021072647962852
 131    7.9002532375904e-05
 132    -0.00051251482281148
 133    0.00010578277571563
 134    0.0010166242598363
 135    -0.0031730810759529
 136     0.022896936393132
 137    -0.013944421307995
 138    -0.0053317672522884
 139      0.03861560558555
 140    -0.023631832696932
 141    -0.0090283694295134
 142     0.065522892525719
 143    -0.039931908714164
 144    -0.0025944406609888
 145    -0.0004361159116209
 146    0.0013270707432313
 147    -0.0014283596301211
 148    -0.0001170036119579
 149    -0.0004260562335296
 150    0.0028453424548574
 151    -0.0053327050586417
 152    0.0036238570593346
 153    -0.016228692977721
 154    0.0098706677742753
 155     0.013859322542902
 156    -0.027545719365013
 157      0.01657454803754
 158     0.023278593684454
 159    -0.043782677854779
 160     0.028271221448066
 161     0.040372769031664
 162    -0.0023956318784891
 163    2.5150475478832e-05
 164    -9.5047285367338e-06
 165    0.00086353106680312
 166    -0.0012544579698343
 167    0.0010875892834938
 168    -0.0071239806215301
 169    0.0093740329454977
 170    0.0032731515288207
 171     0.015793550308325
 172    0.0090163879674679
 173    -0.0078060697880633
 174     0.026650421605799
 175     0.015469876640051
 176    -0.013070845012365
 177     0.044003681935855
 178     0.024868261225252
 179     -0.02277582582498
 180    0.00094656039863199
 181    -0.00021193455898395
 182    0.0011504978487332
 183    -0.0007856943440187
 184    -0.0011652291483162
 Sym= A
 Ene=               3
 Spin= Alpha
 Occup=    1.00000
   1    0.0009972403382497
   2    -0.0029515374081982
   3     0.013400585597051
   4    -0.014466105710821
   5    0.0046655903894577
   6    0.0043688509607962
   7    -0.0025493865368792
   8    -0.0010423946006424
   9    -0.014013367405033
  10    0.0081151053650653
  11    0.0033440834419945
  12      0.01326330105787
  13    -0.015551065886135
  14    -0.013740099813669
  15    0.0018787849519391
  16    7.8200152674232e-05
  17    0.00050362599138763
  18    -0.0034024829482183
  19    0.0022532445933297
  20    0.0021828916380528
  21    0.0033959813417419
  22    0.0016094055784961
  23    -0.0020288138456988
  24    0.0052258597161345
  25    1.6813314931584e-05
  26    -0.0006051943059702
  27    6.3329954541644e-05
  28    -1.2598630868808e-05
  29    -0.00037244518642942
  30    0.00049413655516974
  31    -0.00070224170066933
  32    0.0049522555905679
  33     0.012110735836745
  34    0.0094532742019988
  35    -0.024701384690684
  36    -0.080574295798645
  37    -0.072928725850679
  38    -0.027708648065109
  39    -0.078729708553073
  40    -0.070917844386642
  41    -0.00072504458911404
  42    -0.0020999571291864
  43    -0.0011412673295669
  44    -0.0011128000532349
  45    -0.0018368762945106
  46    -0.00060853358390958
  47    0.0018142423864922
  48    -0.0080868826507139
  49      0.01004391955591
  50    0.0019742416688633
  51    0.0023363887630104
  52    0.0044964614847139
  53    0.0042158089320846
  54    -0.0072438264265274
  55    -0.014206161262576
  56    -0.013410042414192
  57    0.0063492231499551
  58    0.0073195300722038
  59    0.0058593368129578
  60     -0.55573373156544
  61      0.37269620980398
  62     -0.30124322203502
  63     -0.11361236064076
  64       0.4617464638478
  65     -0.14551693864789
  66     0.096016565855421
  67    -0.078683804453432
  68    -0.031178644811397
  69      0.11884562694976
  70    -0.0001854404287498
  71    0.0018424290097897
  72    5.7470488290183e-05
  73    -0.0015978291813461
  74     0.001340447254331
  75    -0.00022278918267678
  76    -0.0018834257841885
  77    0.00017049919607436
  78    -0.0011401136925143
  79    0.0017250451043491
  80    0.0024248573020054
  81    -0.00042042230321032
  82    0.0015521388337013
  83    -0.00049730744062657
  84    -0.00072036308549547
  85    0.0024571555497781
  86    -0.00090432183091553
  87    -0.0020352120628949
  88    0.0065318272294719
  89    -0.0020248183160892
  90    4.3134592700127e-05
  91    -0.0003101117817302
  92    0.00012781014117364
  93    -5.3133615158963e-05
  94    0.00031408146525272
  95    -0.00018101868868916
  96    0.0011886126104156
  97    -0.00091503143900587
  98    -0.007215114831218
  99    0.0025471171367156
 100    0.00054190482385606
 101    0.00090445372231201
 102    0.0044513097677086
 103    0.00099375745445236
 104    0.0017626264133585
 105    0.0083261905239545
 106    -0.00016375101728677
 107    -0.0010737438329055
 108    -0.0001552585191062
 109    0.00028851713292053
 110    -0.00013359621999382
 111    0.00018912012939666
 112    0.00016096990902047
 113    0.00040050709717516
 114    -0.0026828483225573
 115    0.0046674357854882
 116       0.0029472414169
 117    -0.0033146510060273
 118    -0.0015382442926135
 119    0.00099051976703268
 120    -0.0058706756883229
 121    -0.0027425884692054
 122     0.001493700248237
 123    -0.0094797434439794
 124    -0.0053205185133912
 125    0.0046150138687632
 126    0.00038494983995775
 127    0.00010768424795512
 128    -0.0001094555393227
 129    -0.00050855186136749
 130    -0.00063950513757522
 131    0.0036842559790976
 132    -0.024146621756342
 133      0.03015027262418
 134     0.030433161737695
 135    -0.010490711919198
 136    -0.027802840103722
 137    -0.029951513713134
 138    -0.017497772633736
 139    -0.047315335886978
 140     -0.05138789273212
 141    -0.029785447533956
 142    -0.083035102576429
 143    -0.091863781408042
 144     0.001194704733599
 145    -0.0017922832850755
 146    4.877447541875e-05
 147    -1.0418917767945e-05
 148    -0.00041264209441056
 149    -0.00049070854167404
 150    0.0031845107765812
 151    -0.0034601315521958
 152    -0.0058604233519258
 153    -0.00068600737661515
 154    -0.0051535525232119
 155    -0.011277395272618
 156    -0.0012071274792813
 157    -0.0089057773396068
 158    -0.019222276808957
 159    -0.0027498137925157
 160     -0.01326349774546
 161    -0.032102202746107
 162    0.00081715248762166
 163    0.00044144450007865
 164    0.00034345162139617
 165    0.00038528308250431
 166    0.0015494618898943
 167    -0.0028928494300767
 168      0.01883537216299
 169    -0.022654912679832
 170    -0.025959841714042
 171    0.00049587613978093
 172    -0.029140864562446
 173    -0.021810550069313
 174    0.00057243606657705
 175    -0.049168087172427
 176    -0.036474007186009
 177    2.9470469079017e-05
 178    -0.088167415333476
 179    -0.063881074225764
 180    0.00070082708068445
 181    0.00026002598147691
 182    0.00014760545359457
 183    0.0011235027322906