[Molden Format]
made by pyscf v[2.1.1]
[Atoms] (AU)
Fe   1   26     3.17068844873907     0.00098706064664     0.12237737881307
O   2   8     0.00000000000000     0.00000000000000    -0.89004350580623
Fe   3   26    -3.17068844873907    -0.00098706064664     0.12237737881307
Cl   4   17     3.53383895113107    -2.07485195383062     3.76228752659000
Cl   5   17     5.54152580550813    -1.85590924879884    -2.78672786652360
Cl   6   17     4.48169216485503     3.92976278472880    -0.95330240907949
Cl   7   17    -3.53383895113107     2.07485195383062     3.76228752659000
Cl   8   17    -5.54152580550813     1.85590924879884    -2.78672786652360
Cl   9   17    -4.48169216485503    -3.92976278472880    -0.95330240907949
[GTO]
1 0
 s    6 1.00
          60923.640643  0.0017552243692958
          9147.8893982   0.013449023284001
          2081.3505927   0.066678874640978
          587.55977067    0.23176348548844
           191.0904399    0.46945550248188
          65.732730112     0.3596824938678
 s    3 1.00
          127.25891928   -0.10723431835929
           14.83091301    0.62971616328466
          6.0653307408    0.44472317896179
 s    3 1.00
           10.44994371   -0.21694289195548
          1.7245228003    0.69457867408393
         0.71772177325    0.43298308896347
 s    1 1.00
        0.091449828308                   1
 s    1 1.00
        0.033706691021                   1
 p    5 1.00
          773.43750995  0.0091440529992506
          182.15149714   0.067887577136571
          57.547272758    0.26167978878504
          20.614988935    0.51088040113251
           7.634855789    0.33235475570224
 p    3 1.00
           3.871932799    0.33193859098144
          1.4924724132     0.5553666555499
         0.56061284958    0.23106034201617
 p    1 1.00
              0.134915                   1
 d    4 1.00
          38.968133419   0.033335938558743
          10.800067078    0.17766212505983
          3.6136457999      0.441281781625
          1.2129967888    0.57089200490673
 d    1 1.00
          0.3652439317                   1
 f    1 1.00
                 1.598                   1

2 0
 s    5 1.00
          2266.1767785  -0.0053893503921743
          340.87010191   -0.04023472138896
          77.363135167   -0.18008184205526
           21.47964494   -0.46828857657651
          6.6589433124   -0.44692617160187
 s    1 1.00
         0.80975975668                   1
 s    1 1.00
         0.25530772234                   1
 p    3 1.00
          17.721504317   0.062630248763161
           3.863550544    0.33331138482352
          1.0480920883    0.74148638308122
 p    1 1.00
         0.27641544411                   1
 d    1 1.00
                   1.2                   1

3 0
 s    6 1.00
          60923.640643  0.0017552243692958
          9147.8893982   0.013449023284001
          2081.3505927   0.066678874640978
          587.55977067    0.23176348548844
           191.0904399    0.46945550248188
          65.732730112     0.3596824938678
 s    3 1.00
          127.25891928   -0.10723431835929
           14.83091301    0.62971616328466
          6.0653307408    0.44472317896179
 s    3 1.00
           10.44994371   -0.21694289195548
          1.7245228003    0.69457867408393
         0.71772177325    0.43298308896347
 s    1 1.00
        0.091449828308                   1
 s    1 1.00
        0.033706691021                   1
 p    5 1.00
          773.43750995  0.0091440529992506
          182.15149714   0.067887577136571
          57.547272758    0.26167978878504
          20.614988935    0.51088040113251
           7.634855789    0.33235475570224
 p    3 1.00
           3.871932799    0.33193859098144
          1.4924724132     0.5553666555499
         0.56061284958    0.23106034201617
 p    1 1.00
              0.134915                   1
 d    4 1.00
          38.968133419   0.033335938558743
          10.800067078    0.17766212505983
          3.6136457999      0.441281781625
          1.2129967888    0.57089200490673
 d    1 1.00
          0.3652439317                   1
 f    1 1.00
                 1.598                   1

4 0
 s    5 1.00
          10449.827566  0.0054265953789407
          1571.7365221   0.040626378128836
          357.12065523    0.18359747852877
          100.25185935    0.47438948768198
          30.812727554    0.43735181104122
 s    3 1.00
          51.923789434  -0.092754154848099
          5.7045760975    0.56380825544207
          2.3508376809    0.50367044629712
 s    1 1.00
         0.44605124672                   1
 s    1 1.00
          0.1684885619                   1
 p    5 1.00
          307.66790569  -0.0088797025588865
          72.102015515  -0.064284071721237
          22.532680262   -0.24288739736006
          7.8991765444   -0.48340836369878
          2.8767268321   -0.38952563875509
 p    1 1.00
         0.77459363955                   1
 p    1 1.00
         0.21037699698                   1
 d    1 1.00
                  0.65                   1

5 0
 s    5 1.00
          10449.827566  0.0054265953789407
          1571.7365221   0.040626378128836
          357.12065523    0.18359747852877
          100.25185935    0.47438948768198
          30.812727554    0.43735181104122
 s    3 1.00
          51.923789434  -0.092754154848099
          5.7045760975    0.56380825544207
          2.3508376809    0.50367044629712
 s    1 1.00
         0.44605124672                   1
 s    1 1.00
          0.1684885619                   1
 p    5 1.00
          307.66790569  -0.0088797025588865
          72.102015515  -0.064284071721237
          22.532680262   -0.24288739736006
          7.8991765444   -0.48340836369878
          2.8767268321   -0.38952563875509
 p    1 1.00
         0.77459363955                   1
 p    1 1.00
         0.21037699698                   1
 d    1 1.00
                  0.65                   1

6 0
 s    5 1.00
          10449.827566  0.0054265953789407
          1571.7365221   0.040626378128836
          357.12065523    0.18359747852877
          100.25185935    0.47438948768198
          30.812727554    0.43735181104122
 s    3 1.00
          51.923789434  -0.092754154848099
          5.7045760975    0.56380825544207
          2.3508376809    0.50367044629712
 s    1 1.00
         0.44605124672                   1
 s    1 1.00
          0.1684885619                   1
 p    5 1.00
          307.66790569  -0.0088797025588865
          72.102015515  -0.064284071721237
          22.532680262   -0.24288739736006
          7.8991765444   -0.48340836369878
          2.8767268321   -0.38952563875509
 p    1 1.00
         0.77459363955                   1
 p    1 1.00
         0.21037699698                   1
 d    1 1.00
                  0.65                   1

7 0
 s    5 1.00
          10449.827566  0.0054265953789407
          1571.7365221   0.040626378128836
          357.12065523    0.18359747852877
          100.25185935    0.47438948768198
          30.812727554    0.43735181104122
 s    3 1.00
          51.923789434  -0.092754154848099
          5.7045760975    0.56380825544207
          2.3508376809    0.50367044629712
 s    1 1.00
         0.44605124672                   1
 s    1 1.00
          0.1684885619                   1
 p    5 1.00
          307.66790569  -0.0088797025588865
          72.102015515  -0.064284071721237
          22.532680262   -0.24288739736006
          7.8991765444   -0.48340836369878
          2.8767268321   -0.38952563875509
 p    1 1.00
         0.77459363955                   1
 p    1 1.00
         0.21037699698                   1
 d    1 1.00
                  0.65                   1

8 0
 s    5 1.00
          10449.827566  0.0054265953789407
          1571.7365221   0.040626378128836
          357.12065523    0.18359747852877
          100.25185935    0.47438948768198
          30.812727554    0.43735181104122
 s    3 1.00
          51.923789434  -0.092754154848099
          5.7045760975    0.56380825544207
          2.3508376809    0.50367044629712
 s    1 1.00
         0.44605124672                   1
 s    1 1.00
          0.1684885619                   1
 p    5 1.00
          307.66790569  -0.0088797025588865
          72.102015515  -0.064284071721237
          22.532680262   -0.24288739736006
          7.8991765444   -0.48340836369878
          2.8767268321   -0.38952563875509
 p    1 1.00
         0.77459363955                   1
 p    1 1.00
         0.21037699698                   1
 d    1 1.00
                  0.65                   1

9 0
 s    5 1.00
          10449.827566  0.0054265953789407
          1571.7365221   0.040626378128836
          357.12065523    0.18359747852877
          100.25185935    0.47438948768198
          30.812727554    0.43735181104122
 s    3 1.00
          51.923789434  -0.092754154848099
          5.7045760975    0.56380825544207
          2.3508376809    0.50367044629712
 s    1 1.00
         0.44605124672                   1
 s    1 1.00
          0.1684885619                   1
 p    5 1.00
          307.66790569  -0.0088797025588865
          72.102015515  -0.064284071721237
          22.532680262   -0.24288739736006
          7.8991765444   -0.48340836369878
          2.8767268321   -0.38952563875509
 p    1 1.00
         0.77459363955                   1
 p    1 1.00
         0.21037699698                   1
 d    1 1.00
                  0.65                   1

[5d]
[7f]
[9g]

[MO]
 Sym= A
 Ene=               0
 Spin= Alpha
 Occup=    1.00000
   1      0.02177086155951
   2     -0.05726091909592
   3      0.32327688421283
   4      0.27229095308602
   5    -0.084273330401473
   6    0.0017250639338859
   7    -0.00092919523458398
   8    -0.0025261650366203
   9    -0.0069367131379808
  10    0.0028472979300205
  11    0.0072323711452376
  12      0.05852044325134
  13    0.0018898049143846
  14     0.015001641755143
  15    0.0075450287540149
  16    -0.012031704034598
  17    -0.016803466749596
  18    -0.0096403140388183
  19    -0.0013480303338747
  20    0.0094553657037259
  21    -0.014352902086139
  22    -0.011385071426062
  23    -0.016491934625753
  24    -0.00079613025984803
  25    0.0021615506474483
  26     0.001436716763218
  27    -0.0026280413880043
  28    -0.0014818022821221
  29    0.00047867468208153
  30    -0.0025445494067707
  31    -0.00093333626661587
  32     0.055368498408944
  33        0.169463398606
  34      0.13947992622067
  35     0.054576338041676
  36    -0.00088569689131421
  37      0.01836806770506
  38     0.060981652272096
  39    -0.0021426054614755
  40     0.021812782375134
  41     -0.00222368390008
  42    0.0025952562259309
  43    -8.4416297900718e-05
  44    0.0058354204319422
  45    -3.8920912484778e-06
  46    -0.001645016211295
  47    0.0040926820360912
  48    -0.025483611487378
  49    -0.003873314665726
  50     0.019095136761097
  51    -0.0016365913832911
  52    -8.4729207723218e-05
  53    0.0003272017282664
  54    0.0049403539104471
  55    0.00028079312026377
  56    -0.00089383731794442
  57     0.017889562660374
  58    -0.0012749898709464
  59    -0.008360863195501
  60    -0.0019339447713699
  61    0.0022594098606272
  62    0.00036097641467076
  63    0.0020973486848416
  64    -0.00010092079067718
  65    -0.0015734535499002
  66    -0.0025963479316715
  67    -0.00079578808352965
  68    0.0041354271827491
  69    -8.7291141703948e-06
  70    0.00015680391716172
  71    -0.00022990455380289
  72    -0.00011570513699167
  73    -0.00028922071990745
  74    -4.2587879303716e-06
  75    0.00044593728064626
  76    -7.0350828176354e-05
  77      0.01312369852653
  78     -0.09051163033725
  79      0.18165712137859
  80      0.10497808312064
  81    -0.0054204237209211
  82     0.035204887420181
  83    -0.056032425472017
  84    -0.011069329354806
  85     0.071663180250206
  86     -0.11657712189369
  87    -0.018518922476022
  88     0.096706461132138
  89     -0.15365966899682
  90     0.010909432983813
  91    0.0016810732708926
  92    -0.013572197758014
  93    -0.0041640424499594
  94    -0.001069720161362
  95     0.012840062397096
  96    -0.088877425360856
  97      0.18162575664681
  98      0.10111276426663
  99    -0.036214112858785
 100     0.023545036261155
 101     0.043478381977797
 102    -0.075097757629765
 103     0.051683795312762
 104     0.090998630146565
 105     -0.10439044779502
 106      0.06196682824677
 107      0.11858753282966
 108    0.0048796139949823
 109    -0.012081084916116
 110    0.0093313591308628
 111    0.0014272555627763
 112    -0.0072298975882411
 113     0.012529958723737
 114    -0.086473806048665
 115      0.17392898444347
 116     0.099352421565583
 117     -0.02043087588184
 118    -0.056097633176719
 119     0.021990741927976
 120    -0.041615693764025
 121     -0.11737868552488
 122     0.042337403464451
 123     -0.06036491449467
 124     -0.15263504661639
 125     0.062321799891461
 126    -0.0057795715531137
 127    -0.0024826328499775
 128    -0.0077428308055165
 129    -0.011067554646183
 130    0.0072297591232803
 131    -0.00026235578961076
 132    0.0021966209801778
 133    -0.0092688746120924
 134    0.00026048711424475
 135    0.0073833846132806
 136    0.0011086413179754
 137    0.0015728637003831
 138     0.012591861434626
 139    0.0029859638739593
 140     0.004444659604747
 141      0.02153697561555
 142     0.002184998369607
 143    0.0037248278083014
 144    -0.00034108822026875
 145    -0.00071135191786265
 146    -0.00016777087786525
 147    0.00026066331486844
 148    -0.00049563851073946
 149    -0.0010046622108153
 150    0.0069374140378522
 151    -0.012969472825795
 152    -0.014001082760993
 153    -0.0012045182080123
 154      0.00212766579914
 155    -0.0039201941469346
 156    -0.0030261697194053
 157    0.0043910812576599
 158    -0.0080258978288901
 159    -0.0054169906126313
 160    0.0070954995011571
 161     -0.01160837708882
 162    -0.00021686344609746
 163    -0.00085964495252085
 164    0.00073369520282432
 165    -0.00016338032253938
 166    0.00064065794006684
 167    -0.00074758417028184
 168     0.005285299794543
 169    -0.011399455049742
 170    -0.0097925909215831
 171    0.0023063571422204
 172    -0.0038895291517837
 173    -0.001410227735558
 174    0.0033836868471411
 175    -0.0082521934735465
 176    -0.0029792914185329
 177       0.0057524431113
 178    -0.012664180530175
 179    -0.0035330570688716
 180    0.00039234642587254
 181    3.6884236304813e-05
 182    -0.00030721826205978
 183    0.00079574150354361
 184    -0.00030728364748937
 Sym= A
 Ene=               1
 Spin= Alpha
 Occup=    1.00000
   1    -0.0012624744301203
   2    0.0037551393587939
   3    -0.016795124211708
   4     0.031469241005746
   5    -0.013929159754872
   6    -0.00067801989818983
   7    -0.0014776969243751
   8    0.0048082400533785
   9    0.0021473194318772
  10    0.0046677566308156
  11    -0.014936499479725
  12    -0.0023346540058879
  13    -0.0057445578952487
  14     0.021809710771219
  15     -0.20129517106655
  16      0.47894349029458
  17      0.48273038468826
  18     -0.43357080796752
  19     -0.28034089306661
  20    -0.054083637159278
  21      0.12836789478001
  22      0.13067659564535
  23     -0.11765350448461
  24    -0.075327869636363
  25    -0.001065844247507
  26    0.0010670254540596
  27    0.0009805420132512
  28    0.00025921590584693
  29    0.00029218080058161
  30    -0.00088712756817918
  31    -0.00057294546750065
  32    -0.0018812243920069
  33    -0.0050967824899043
  34    -0.0025537362739655
  35    -0.0086483864574167
  36    -0.014399737334503
  37     0.049584912401241
  38    -0.0094574936068661
  39    -0.014021458953781
  40     0.048219577465631
  41    0.00020486316905429
  42    -0.0012000329439867
  43    0.00019746568071869
  44    0.00011826104500841
  45    0.0001957292181961
  46    -0.00052574718285242
  47    0.0015699611397413
  48    -0.0070002761516836
  49    0.0074469133637672
  50    -0.0013408820059474
  51    0.0024284752523046
  52    -0.00052538474187861
  53    0.00083763859105728
  54    -0.0077508893046619
  55    0.0016720505223074
  56    -0.0026746112166332
  57    0.0067288818571277
  58    -0.0030768697790561
  59    0.0085391237510719
  60    -0.0012752476237254
  61    0.00071361451317997
  62    7.1256961766476e-06
  63    0.0019590585414241
  64    -0.00060759095846147
  65    -0.0014003379904639
  66    0.0023066272816262
  67    0.00015476322268172
  68    0.00081310669889196
  69    -0.00085977518250471
  70    -4.9495296781915e-05
  71    -0.00039237230054939
  72    -1.7782681149683e-05
  73    9.136960208627e-05
  74    6.2287381418605e-05
  75    0.0002837544881529
  76    -0.00012035643886893
  77    0.0013678035584263
  78    -0.0089692200279292
  79     0.011347215919899
  80    0.0065346706052606
  81    -0.018071071002527
  82    0.0080035130446543
  83    -0.010004455761353
  84    -0.030642159346652
  85     0.013808768520062
  86    -0.017432577010396
  87    -0.050506291704119
  88     0.022134070917468
  89    -0.027766976736332
  90    0.00048518765508547
  91    -0.001964705715172
  92    0.00045177383655052
  93    -0.0008683825895785
  94    0.0012409574592881
  95    -8.1874417973936e-05
  96    0.00055759288552202
  97    -0.002245185385414
  98    0.0045303465858832
  99     0.011791107071823
 100     0.025701019821941
 101    -0.0080044099904593
 102     0.019903133944114
 103     0.043317402259194
 104     -0.01335024568318
 105     0.031869058145116
 106      0.07390337775234
 107    -0.022203306601205
 108    0.00070917396953901
 109    -0.0013556838870248
 110    -0.0016571099531063
 111    0.0020452239765588
 112    0.0012718934556323
 113    -0.00020085753321171
 114    0.0013304927193227
 115    -0.0030810232176874
 116    0.0026417318873997
 117     0.013244289074947
 118    -0.0077782359107735
 119    -0.021922872778981
 120      0.02220199479274
 121    -0.013102657677148
 122    -0.036790145236994
 123     0.037137998769829
 124    -0.023095633897204
 125    -0.062105478462267
 126    0.00098988202211825
 127    -0.0012773991190261
 128    -0.0015530998885759
 129    0.0016691708624332
 130    0.00079496551670627
 131    -0.00022416267764512
 132    0.0015135706917007
 133    -0.0028146549671717
 134    -0.0014910300546578
 135    -0.0015525845512035
 136    0.00083853258399267
 137    0.00078408711078618
 138    -0.0028636664714481
 139     0.001434702740052
 140    0.0013731405350188
 141    -0.0037564121711723
 142    0.0032801898889929
 143    0.0030828535322019
 144    -0.00010629936762643
 145    -0.00031181266244708
 146    5.1473369940311e-05
 147    0.00017675522226466
 148    -0.0002483752243615
 149    7.7414905229406e-05
 150    -0.00050917068203369
 151    0.00037031699472356
 152    0.0032623783308349
 153    0.0010522168374067
 154    7.6967851531254e-05
 155    -0.00069412193201383
 156    0.0018311212911124
 157    0.00018378405390814
 158    -0.0012500879606892
 159    0.0035837885988267
 160    -0.00080130671440134
 161    -0.00049861149640335
 162    4.5390890782498e-05
 163    0.00014082319635266
 164    -5.5476550257668e-05
 165    -9.5034400006624e-05
 166    -3.058592858824e-05
 167    -0.000100703855873
 168    0.00068137262240724
 169    -0.0014329182470779
 170    0.00028895002826608
 171    -0.00075406139496962
 172    -0.00040693526168255
 173    -0.00078926538832535
 174    -0.0013704755683745
 175    -0.00074411085746188
 176    -0.0013015297540416
 177    -0.0019864325341902
 178    -0.00093053526507031
 179    -0.0026917331389219
 180    -0.00010614559632291
 181    0.00013540675860165
 182    1.2870041137006e-05
 183    0.00010585473386371
 184    0.00017965845961224
 Sym= A
 Ene=               2
 Spin= Alpha
 Occup=    1.00000
   1    -0.00083342290456624
   2    0.0024797521680669
   3    -0.011079234985408
   4     0.021070785978407
   5    -0.0075544874454286
   6    -4.4083534921548e-05
   7    0.0065214085801402
   8    0.0033023055725032
   9    0.0001151225057865
  10    -0.020054897095383
  11    -0.010088176955894
  12    0.00092727162541955
  13     0.028261432745252
  14      0.01572100517029
  15      0.52478932055673
  16      0.15477636684332
  17       0.4639435593649
  18       0.1309196909468
  19      0.48633748051779
  20      0.14098167839221
  21     0.040740914575318
  22      0.12459804480263
  23     0.034781653379664
  24      0.12900282189579
  25    0.00059363468181125
  26    0.0013496030883448
  27    0.00055241028456457
  28    0.0006754410655642
  29    0.0017073268108691
  30    7.8919435583062e-05
  31    0.0015208093559276
  32    -0.002247531302618
  33    -0.005879822054672
  34    -0.0028871779012436
  35    -0.0092134906474291
  36     0.076074828114268
  37     0.042438557353672
  38    -0.010232396908208
  39      0.07325189229363
  40     0.041430301992406
  41    0.00063102110873969
  42    -0.0012348060622077
  43    0.0011389830084399
  44    0.00049702379072392
  45    -0.0016929106717188
  46    -0.00051488386678966
  47    0.0015250851956294
  48    -0.0069092981550288
  49    0.0083677278956656
  50    -0.0020154024739491
  51    0.0021767133921721
  52    0.0022255628418241
  53    0.00050574154036401
  54    -0.0069497095630988
  55    -0.0070862501130526
  56    -0.0016208243378258
  57    0.0055215115667532
  58     0.014249605127664
  59     0.006923098931194
  60    -0.0013746745541519
  61    0.00013052209252003
  62    -0.00042130816661696
  63     0.001450597465253
  64    0.0021720378455811
  65    -0.0012381715548099
  66    0.0019759921292522
  67    -0.0012196637726849
  68     0.000517043616054
  69    0.0049898545264964
  70    -2.0144247768309e-05
  71    -0.00033436569514344
  72    -0.00014483022917016
  73    0.00011147968088271
  74    -0.00034979232149774
  75    0.00027010086598327
  76    0.00066390636762674
  77    7.900253237601e-05
  78    -0.00051251482281218
  79    0.0001057827757165
  80     0.001016624259837
  81    0.0031730810759527
  82    -0.022896936393131
  83    -0.013944421307996
  84    0.0053317672522881
  85    -0.038615605585548
  86    -0.023631832696934
  87    0.0090283694295129
  88    -0.065522892525716
  89    -0.039931908714167
  90    -0.0025944406609887
  91    0.00043611591162089
  92    -0.0013270707432313
  93    -0.0014283596301211
  94    -0.00011700361195788
  95    -0.00042605623352961
  96    0.0028453424548574
  97    -0.0053327050586418
  98    0.0036238570593346
  99     0.016228692977722
 100    -0.0098706677742745
 101     0.013859322542902
 102     0.027545719365014
 103    -0.016574548037539
 104     0.023278593684453
 105      0.04378267785478
 106    -0.028271221448063
 107     0.040372769031662
 108    -0.002395631878489
 109    -2.5150475478881e-05
 110    9.5047285366816e-06
 111    0.00086353106680318
 112    -0.0012544579698342
 113    0.0010875892834937
 114    -0.0071239806215296
 115     0.009374032945497
 116    0.0032731515288201
 117    -0.015793550308324
 118    -0.0090163879674674
 119    -0.0078060697880643
 120    -0.026650421605798
 121     -0.01546987664005
 122    -0.013070845012366
 123    -0.044003681935853
 124    -0.024868261225251
 125    -0.022775825824982
 126    0.00094656039863203
 127    0.00021193455898391
 128    -0.0011504978487332
 129    -0.00078569434401863
 130    -0.0011652291483162
 131    -0.00029241024822829
 132     0.001935103546176
 133    -0.0025939930889075
 134    -0.0053213216343687
 135    -0.0024305960511342
 136    -3.7291192546648e-05
 137    0.0019501618089949
 138    -0.0042739426971407
 139    -0.00011350757764615
 140    0.0033027775045581
 141    -0.0065491834916968
 142    0.0011618850822337
 143     0.008087027377605
 144    -3.6912561723888e-05
 145    -0.00054286618864383
 146    -6.1547700548095e-05
 147    0.00029642306679849
 148    -9.0980720904467e-05
 149    -9.889550907501e-05
 150    0.00066368637964064
 151    -0.0012810804692746
 152    -9.7312568301815e-05
 153    -0.00089671669533184
 154    -0.00045666199862855
 155    -0.00078704217930842
 156    -0.0016063835670803
 157    -0.00064709637628309
 158    -0.0012643295539727
 159    -0.0024753977314451
 160    -0.0023337956455062
 161    -0.002835857317976
 162    -0.0001769492268187
 163    0.00012587917807783
 164    -2.1442540771171e-05
 165    0.00012321720365648
 166    2.4108999593288e-05
 167    0.00027012554007576
 168    -0.0017976788199937
 169     0.002616762559617
 170    0.0045238249331816
 171    0.0030061173154247
 172    0.00081786899302267
 173    -0.00082798201335845
 174    0.0054029751402693
 175    0.0013606466552861
 176    -0.0014994880832205
 177    0.0077189260507314
 178     0.004632949862761
 179    -0.0013589826220008
 180    0.00012663964075382
 181    0.00021916989331083
 182    0.00019121917952934
 183    -0.00053504387156507
 184    -0.00021072647962853
 Sym= A
 Ene=               3
 Spin= Alpha
 Occup=    1.00000
   1    -0.00060853358390956
   2    0.0018142423864921
   3    -0.0080868826507137
   4      0.01004391955591
   5     0.001974241668863
   6    -0.0023363887630102
   7    -0.0044964614847142
   8    0.0042158089320846
   9    0.0072438264265265
  10     0.014206161262577
  11    -0.013410042414192
  12    -0.0063492231499544
  13    -0.0073195300722048
  14    0.0058593368129576
  15     -0.55573373156546
  16     -0.37269620980397
  17      0.30124322203502
  18     -0.11361236064077
  19      0.46174646384778
  20     -0.14551693864789
  21    -0.096016565855417
  22      0.07868380445343
  23    -0.031178644811399
  24      0.11884562694976
  25    -0.00018544042874986
  26    -0.0018424290097897
  27    -5.7470488290194e-05
  28    -0.0015978291813461
  29     0.001340447254331
  30    0.00022278918267678
  31    0.0018834257841885
  32    0.0049522555905676
  33     0.012110735836745
  34    0.0094532742019979
  35     0.024701384690683
  36     0.080574295798644
  37    -0.072928725850679
  38     0.027708648065107
  39     0.078729708553072
  40    -0.070917844386642
  41    -0.00072504458911407
  42    0.0020999571291864
  43    0.0011412673295669
  44    -0.0011128000532348
  45    -0.0018368762945105
  46    0.00099724033824967
  47    -0.0029515374081981
  48      0.01340058559705
  49    -0.014466105710821
  50    0.0046655903894579
  51    -0.0043688509607961
  52    0.0025493865368791
  53    -0.0010423946006424
  54     0.014013367405033
  55    -0.0081151053650652
  56    0.0033440834419946
  57     -0.01326330105787
  58     0.015551065886135
  59    -0.013740099813669
  60    0.0018787849519391
  61    -7.8200152674463e-05
  62    -0.00050362599138781
  63    -0.0034024829482182
  64    0.0022532445933294
  65    0.0021828916380528
  66    -0.003395981341742
  67    -0.0016094055784961
  68    -0.0020288138456987
  69    0.0052258597161343
  70    1.6813314931588e-05
  71    0.0006051943059702
  72    -6.3329954541644e-05
  73    -1.2598630868816e-05
  74    -0.00037244518642941
  75    -0.00049413655516974
  76    0.00070224170066932
  77    0.0036842559790976
  78    -0.024146621756342
  79      0.03015027262418
  80     0.030433161737695
  81     0.010490711919198
  82     0.027802840103723
  83    -0.029951513713133
  84     0.017497772633735
  85      0.04731533588698
  86    -0.051387892732119
  87     0.029785447533954
  88     0.083035102576431
  89    -0.091863781408042
  90    0.0011947047335991
  91    0.0017922832850754
  92    -4.8774475418706e-05
  93    -1.0418917767918e-05
  94    -0.00041264209441051
  95    -0.00049070854167396
  96    0.0031845107765806
  97    -0.0034601315521951
  98    -0.0058604233519253
  99    0.00068600737661444
 100    0.0051535525232129
 101    -0.011277395272618
 102      0.00120712747928
 103    0.0089057773396086
 104    -0.019222276808957
 105    0.0027498137925136
 106     0.013263497745463
 107    -0.032102202746107
 108    0.00081715248762176
 109    -0.00044144450007868
 110    -0.00034345162139619
 111    0.00038528308250433
 112    0.0015494618898944
 113    -0.0028928494300768
 114      0.01883537216299
 115    -0.022654912679832
 116    -0.025959841714042
 117    -0.00049587613978046
 118     0.029140864562446
 119    -0.021810550069313
 120    -0.00057243606657627
 121     0.049168087172428
 122    -0.036474007186009
 123    -2.9470469077751e-05
 124     0.088167415333477
 125    -0.063881074225765
 126    0.00070082708068444
 127    -0.00026002598147692
 128    -0.00014760545359456
 129    0.0011235027322906
 130    -0.0018947674249329
 131    0.00017049919607435
 132    -0.0011401136925142
 133    0.0017250451043491
 134    0.0024248573020053
 135    0.00042042230321037
 136    -0.0015521388337013
 137    -0.00049730744062657
 138    0.00072036308549555
 139    -0.002457155549778
 140    -0.00090432183091553
 141     0.002035212062895
 142    -0.0065318272294718
 143    -0.0020248183160892
 144    4.3134592700126e-05
 145    0.0003101117817302
 146    -0.00012781014117364
 147    -5.3133615158966e-05
 148    0.00031408146525272
 149    -0.00018101868868916
 150    0.0011886126104157
 151    -0.00091503143900594
 152    -0.007215114831218
 153    -0.0025471171367156
 154    -0.00054190482385604
 155    0.00090445372231199
 156    -0.0044513097677086
 157    -0.00099375745445232
 158    0.0017626264133584
 159    -0.0083261905239545
 160    0.00016375101728682
 161    -0.0010737438329056
 162    -0.0001552585191062
 163    -0.00028851713292053
 164    0.00013359621999382
 165    0.00018912012939667
 166    0.00016096990902046
 167    0.00040050709717515
 168    -0.0026828483225572
 169    0.0046674357854881
 170    0.0029472414168998
 171    0.0033146510060272
 172    0.0015382442926135
 173    0.00099051976703268
 174    0.0058706756883227
 175    0.0027425884692053
 176     0.001493700248237
 177    0.0094797434439791
 178     0.005320518513391
 179    0.0046150138687631
 180    0.00038494983995774
 181    -0.00010768424795513
 182    0.00010945553932269