[Molden Format]
made by pyscf v[2.1.1]
[Atoms] (AU)
Fe   1   26     3.17068844873907     0.00098706064664     0.12237737881307
O   2   8     0.00000000000000     0.00000000000000    -0.89004350580623
Fe   3   26    -3.17068844873907    -0.00098706064664     0.12237737881307
Cl   4   17     3.53383895113107    -2.07485195383062     3.76228752659000
Cl   5   17     5.54152580550813    -1.85590924879884    -2.78672786652360
Cl   6   17     4.48169216485503     3.92976278472880    -0.95330240907949
Cl   7   17    -3.53383895113107     2.07485195383062     3.76228752659000
Cl   8   17    -5.54152580550813     1.85590924879884    -2.78672786652360
Cl   9   17    -4.48169216485503    -3.92976278472880    -0.95330240907949
[GTO]
1 0
 s    6 1.00
          60923.640643  0.0017552243692958
          9147.8893982   0.013449023284001
          2081.3505927   0.066678874640978
          587.55977067    0.23176348548844
           191.0904399    0.46945550248188
          65.732730112     0.3596824938678
 s    3 1.00
          127.25891928   -0.10723431835929
           14.83091301    0.62971616328466
          6.0653307408    0.44472317896179
 s    3 1.00
           10.44994371   -0.21694289195548
          1.7245228003    0.69457867408393
         0.71772177325    0.43298308896347
 s    1 1.00
        0.091449828308                   1
 s    1 1.00
        0.033706691021                   1
 p    5 1.00
          773.43750995  0.0091440529992506
          182.15149714   0.067887577136571
          57.547272758    0.26167978878504
          20.614988935    0.51088040113251
           7.634855789    0.33235475570224
 p    3 1.00
           3.871932799    0.33193859098144
          1.4924724132     0.5553666555499
         0.56061284958    0.23106034201617
 p    1 1.00
              0.134915                   1
 d    4 1.00
          38.968133419   0.033335938558743
          10.800067078    0.17766212505983
          3.6136457999      0.441281781625
          1.2129967888    0.57089200490673
 d    1 1.00
          0.3652439317                   1
 f    1 1.00
                 1.598                   1

2 0
 s    5 1.00
          2266.1767785  -0.0053893503921743
          340.87010191   -0.04023472138896
          77.363135167   -0.18008184205526
           21.47964494   -0.46828857657651
          6.6589433124   -0.44692617160187
 s    1 1.00
         0.80975975668                   1
 s    1 1.00
         0.25530772234                   1
 p    3 1.00
          17.721504317   0.062630248763161
           3.863550544    0.33331138482352
          1.0480920883    0.74148638308122
 p    1 1.00
         0.27641544411                   1
 d    1 1.00
                   1.2                   1

3 0
 s    6 1.00
          60923.640643  0.0017552243692958
          9147.8893982   0.013449023284001
          2081.3505927   0.066678874640978
          587.55977067    0.23176348548844
           191.0904399    0.46945550248188
          65.732730112     0.3596824938678
 s    3 1.00
          127.25891928   -0.10723431835929
           14.83091301    0.62971616328466
          6.0653307408    0.44472317896179
 s    3 1.00
           10.44994371   -0.21694289195548
          1.7245228003    0.69457867408393
         0.71772177325    0.43298308896347
 s    1 1.00
        0.091449828308                   1
 s    1 1.00
        0.033706691021                   1
 p    5 1.00
          773.43750995  0.0091440529992506
          182.15149714   0.067887577136571
          57.547272758    0.26167978878504
          20.614988935    0.51088040113251
           7.634855789    0.33235475570224
 p    3 1.00
           3.871932799    0.33193859098144
          1.4924724132     0.5553666555499
         0.56061284958    0.23106034201617
 p    1 1.00
              0.134915                   1
 d    4 1.00
          38.968133419   0.033335938558743
          10.800067078    0.17766212505983
          3.6136457999      0.441281781625
          1.2129967888    0.57089200490673
 d    1 1.00
          0.3652439317                   1
 f    1 1.00
                 1.598                   1

4 0
 s    5 1.00
          10449.827566  0.0054265953789407
          1571.7365221   0.040626378128836
          357.12065523    0.18359747852877
          100.25185935    0.47438948768198
          30.812727554    0.43735181104122
 s    3 1.00
          51.923789434  -0.092754154848099
          5.7045760975    0.56380825544207
          2.3508376809    0.50367044629712
 s    1 1.00
         0.44605124672                   1
 s    1 1.00
          0.1684885619                   1
 p    5 1.00
          307.66790569  -0.0088797025588865
          72.102015515  -0.064284071721237
          22.532680262   -0.24288739736006
          7.8991765444   -0.48340836369878
          2.8767268321   -0.38952563875509
 p    1 1.00
         0.77459363955                   1
 p    1 1.00
         0.21037699698                   1
 d    1 1.00
                  0.65                   1

5 0
 s    5 1.00
          10449.827566  0.0054265953789407
          1571.7365221   0.040626378128836
          357.12065523    0.18359747852877
          100.25185935    0.47438948768198
          30.812727554    0.43735181104122
 s    3 1.00
          51.923789434  -0.092754154848099
          5.7045760975    0.56380825544207
          2.3508376809    0.50367044629712
 s    1 1.00
         0.44605124672                   1
 s    1 1.00
          0.1684885619                   1
 p    5 1.00
          307.66790569  -0.0088797025588865
          72.102015515  -0.064284071721237
          22.532680262   -0.24288739736006
          7.8991765444   -0.48340836369878
          2.8767268321   -0.38952563875509
 p    1 1.00
         0.77459363955                   1
 p    1 1.00
         0.21037699698                   1
 d    1 1.00
                  0.65                   1

6 0
 s    5 1.00
          10449.827566  0.0054265953789407
          1571.7365221   0.040626378128836
          357.12065523    0.18359747852877
          100.25185935    0.47438948768198
          30.812727554    0.43735181104122
 s    3 1.00
          51.923789434  -0.092754154848099
          5.7045760975    0.56380825544207
          2.3508376809    0.50367044629712
 s    1 1.00
         0.44605124672                   1
 s    1 1.00
          0.1684885619                   1
 p    5 1.00
          307.66790569  -0.0088797025588865
          72.102015515  -0.064284071721237
          22.532680262   -0.24288739736006
          7.8991765444   -0.48340836369878
          2.8767268321   -0.38952563875509
 p    1 1.00
         0.77459363955                   1
 p    1 1.00
         0.21037699698                   1
 d    1 1.00
                  0.65                   1

7 0
 s    5 1.00
          10449.827566  0.0054265953789407
          1571.7365221   0.040626378128836
          357.12065523    0.18359747852877
          100.25185935    0.47438948768198
          30.812727554    0.43735181104122
 s    3 1.00
          51.923789434  -0.092754154848099
          5.7045760975    0.56380825544207
          2.3508376809    0.50367044629712
 s    1 1.00
         0.44605124672                   1
 s    1 1.00
          0.1684885619                   1
 p    5 1.00
          307.66790569  -0.0088797025588865
          72.102015515  -0.064284071721237
          22.532680262   -0.24288739736006
          7.8991765444   -0.48340836369878
          2.8767268321   -0.38952563875509
 p    1 1.00
         0.77459363955                   1
 p    1 1.00
         0.21037699698                   1
 d    1 1.00
                  0.65                   1

8 0
 s    5 1.00
          10449.827566  0.0054265953789407
          1571.7365221   0.040626378128836
          357.12065523    0.18359747852877
          100.25185935    0.47438948768198
          30.812727554    0.43735181104122
 s    3 1.00
          51.923789434  -0.092754154848099
          5.7045760975    0.56380825544207
          2.3508376809    0.50367044629712
 s    1 1.00
         0.44605124672                   1
 s    1 1.00
          0.1684885619                   1
 p    5 1.00
          307.66790569  -0.0088797025588865
          72.102015515  -0.064284071721237
          22.532680262   -0.24288739736006
          7.8991765444   -0.48340836369878
          2.8767268321   -0.38952563875509
 p    1 1.00
         0.77459363955                   1
 p    1 1.00
         0.21037699698                   1
 d    1 1.00
                  0.65                   1

9 0
 s    5 1.00
          10449.827566  0.0054265953789407
          1571.7365221   0.040626378128836
          357.12065523    0.18359747852877
          100.25185935    0.47438948768198
          30.812727554    0.43735181104122
 s    3 1.00
          51.923789434  -0.092754154848099
          5.7045760975    0.56380825544207
          2.3508376809    0.50367044629712
 s    1 1.00
         0.44605124672                   1
 s    1 1.00
          0.1684885619                   1
 p    5 1.00
          307.66790569  -0.0088797025588865
          72.102015515  -0.064284071721237
          22.532680262   -0.24288739736006
          7.8991765444   -0.48340836369878
          2.8767268321   -0.38952563875509
 p    1 1.00
         0.77459363955                   1
 p    1 1.00
         0.21037699698                   1
 d    1 1.00
                  0.65                   1

[5d]
[7f]
[9g]

[MO]
 Sym= B
 Ene=               0
 Spin= Alpha
 Occup=    1.00000
   1    0.0018321067713862
   2    -0.0051637487769541
   3     0.025899139686224
   4    -0.011986931379866
   5    0.0048750446184092
   6    0.0047151430293937
   7    -0.012647778477068
   8    0.0011344394535882
   9    -0.015977058253995
  10     0.041082931881877
  11    -0.0039731734394621
  12     0.016445596767397
  13    -0.090150053826394
  14    0.0044864073717177
  15     0.001418400307217
  16    -0.016480022039489
  17     0.025677402742641
  18    -0.034539488265205
  19      0.11148203627612
  20    0.0023469371254312
  21    -0.0077794723659852
  22     0.016224977348775
  23     -0.01621073902485
  24     0.071189522438791
  25    -0.00048196635247803
  26    -0.00035270666171846
  27    0.00063208333070496
  28    0.00093263339245656
  29    -0.0019782100600504
  30    0.00074214342590456
  31    -0.0041426592389367
  32    8.8675951976727e-18
  33    1.0952553011146e-17
  34    2.600490182246e-17
  35     -0.10203773993037
  36     -0.54736261938484
  37    3.1678844655963e-17
  38    -0.082662773500132
  39     -0.47142117059697
  40    2.9671597099269e-17
  41    1.3936227484304e-18
  42    -0.0027857260770952
  43    -0.011231845427711
  44    -1.5875804344889e-18
  45    2.5854935385978e-19
  46    -0.0018321067713862
  47    0.0051637487769541
  48    -0.025899139686224
  49     0.011986931379866
  50    -0.0048750446184092
  51    0.0047151430293937
  52    -0.012647778477068
  53    -0.0011344394535883
  54    -0.015977058253995
  55     0.041082931881877
  56    0.0039731734394621
  57     0.016445596767397
  58    -0.090150053826394
  59    -0.0044864073717177
  60    -0.0014184003072173
  61    -0.016480022039489
  62     0.025677402742641
  63     0.034539488265204
  64     -0.11148203627612
  65    -0.0023469371254313
  66    -0.0077794723659852
  67     0.016224977348775
  68      0.01621073902485
  69    -0.071189522438791
  70    0.00048196635247803
  71    -0.00035270666171846
  72    0.00063208333070496
  73    -0.00093263339245657
  74    0.0019782100600504
  75    0.00074214342590456
  76    -0.0041426592389367
  77    -0.00034699922175429
  78    0.0021975307651063
  79    -0.0011622389244314
  80    -0.013210372938523
  81    0.0034750158790949
  82    0.0033087037757385
  83    0.0034049953648969
  84    0.0069591327752074
  85    0.0055447775714605
  86    0.0048121919117349
  87    0.0064451190847564
  88    0.0098829562133912
  89     0.019433155355475
  90    -0.0006577788436657
  91    0.0021079571993249
  92    0.00092829252536638
  93    0.00088585522619665
  94    7.7404054096032e-05
  95    -0.00022388620535275
  96     0.001325905933736
  97    0.00066587044230208
  98     -0.01261132323953
  99    0.0031441241143293
 100    0.0022038094732615
 101    -0.0012756226322229
 102    0.0053812666605272
 103    0.0035388731414933
 104    -0.00092140627730563
 105     0.011773712601112
 106    0.0083417774543407
 107    -0.012068033681831
 108    -0.0017935211193612
 109    0.00014416678127327
 110    -0.00028951251509334
 111    0.00070263205008754
 112    0.00046814922325806
 113    0.0021231185226788
 114    -0.014105829757796
 115     0.022427457906057
 116      0.02679299628268
 117    -0.012244516117215
 118    -0.0090910988178866
 119    0.0020459839196031
 120    -0.022537424749617
 121     -0.01558112494465
 122    0.0027509762558071
 123    -0.034631558384596
 124    -0.036353660541057
 125     0.011870401891594
 126    0.0013459519493537
 127    -0.00050110934637693
 128    -0.0022065280927482
 129    -0.0046546778262796
 130    -0.0029112110879388
 131    0.00034699922175429
 132    -0.0021975307651063
 133    0.0011622389244314
 134     0.013210372938523
 135    0.0034750158790949
 136    0.0033087037757385
 137    -0.0034049953648969
 138    0.0069591327752074
 139    0.0055447775714604
 140    -0.0048121919117349
 141    0.0064451190847563
 142    0.0098829562133911
 143    -0.019433155355475
 144    0.0006577788436657
 145    0.0021079571993249
 146    0.00092829252536638
 147    -0.00088585522619665
 148    -7.7404054096032e-05
 149    0.00022388620535275
 150    -0.001325905933736
 151    -0.00066587044230209
 152      0.01261132323953
 153    0.0031441241143293
 154    0.0022038094732615
 155    0.0012756226322229
 156    0.0053812666605272
 157    0.0035388731414932
 158    0.00092140627730565
 159     0.011773712601112
 160    0.0083417774543406
 161     0.012068033681831
 162    0.0017935211193612
 163    0.00014416678127327
 164    -0.00028951251509334
 165    -0.00070263205008754
 166    -0.00046814922325806
 167    -0.0021231185226788
 168     0.014105829757796
 169    -0.022427457906057
 170     -0.02679299628268
 171    -0.012244516117215
 172    -0.0090910988178866
 173    -0.0020459839196031
 174    -0.022537424749617
 175     -0.01558112494465
 176    -0.0027509762558071
 177    -0.034631558384596
 178    -0.036353660541057
 179    -0.011870401891594
 180    -0.0013459519493537
 181    -0.00050110934637694
 182    -0.0022065280927482
 183    0.0046546778262796
 184    0.0029112110879388
 Sym= A
 Ene=               1
 Spin= Alpha
 Occup=    1.00000
   1    0.0036274424827116
   2    -0.010167233031498
   3     0.051495309676683
   4    -0.046141937426336
   5     0.030201324527399
   6     0.012086018883627
   7    -0.00053181809008901
   8    -0.0097165587802221
   9    -0.040544541843662
  10    0.0016133852469259
  11     0.031163383736319
  12     0.055912947194813
  13    0.0017857139268901
  14    -0.083683505341115
  15     0.076036277005998
  16     0.061155525387885
  17    -0.013042230317557
  18    -0.077280155401339
  19    0.0037219160290026
  20     0.042517968629236
  21     0.045522104166625
  22    -0.004644263023597
  23    -0.040980655402647
  24    0.0019347599417448
  25    0.00099598705789036
  26    -0.0036400162590604
  27    -0.00032708281393351
  28    -0.0016614682310027
  29    -4.483685645817e-05
  30    0.0023631001960601
  31    -6.6850412499079e-06
  32     0.012542611951808
  33     0.043170059733741
  34     0.032526142723392
  35    -1.7514659376058e-16
  36    -9.6549766487373e-17
  37     -0.54879846219585
  38    -1.4936287959523e-16
  39    -8.1572259806116e-17
  40     -0.47201491527766
  41    -0.012382538230441
  42    -4.5193538874125e-18
  43    -1.9782837104234e-18
  44    -0.00079125840026202
  45    -0.00012030532446212
  46    0.0036274424827116
  47    -0.010167233031498
  48     0.051495309676683
  49    -0.046141937426336
  50     0.030201324527399
  51    -0.012086018883627
  52     0.000531818090089
  53    -0.0097165587802221
  54     0.040544541843662
  55    -0.0016133852469259
  56     0.031163383736319
  57    -0.055912947194813
  58    -0.0017857139268902
  59    -0.083683505341115
  60     0.076036277005998
  61    -0.061155525387885
  62     0.013042230317557
  63    -0.077280155401339
  64    0.0037219160290026
  65     0.042517968629236
  66    -0.045522104166626
  67    0.0046442630235971
  68    -0.040980655402647
  69    0.0019347599417448
  70    0.00099598705789036
  71    0.0036400162590604
  72    0.00032708281393351
  73    -0.0016614682310027
  74    -4.483685645817e-05
  75    -0.0023631001960601
  76    6.6850412499066e-06
  77    0.0022202561571834
  78    -0.014843985658282
  79      0.02617120283214
  80     0.022031273947092
  81    -0.010424262850431
  82    0.0081141814483507
  83    -0.011144368090782
  84    -0.019026312230724
  85     0.013588656120702
  86    -0.019968509034229
  87     -0.02865348893069
  88     0.031377310143968
  89    -0.038192600272128
  90    0.0017971164076347
  91    -0.0025619812287934
  92    -0.0016827542528712
  93    -0.0025143000162046
  94    0.0015075016426549
  95    -0.00027309835142083
  96    0.0014796704741944
  97    0.0043376537786641
  98    -0.028021275567761
  99     0.003916668741537
 100    -0.0012483394976002
 101    0.0021213025460631
 102    0.0067908653840079
 103    -0.00092261715999839
 104    0.0048477874727369
 105     0.015718873101634
 106    -0.012966980733578
 107    -0.0021987921209437
 108    -0.001737976672154
 109    0.00075063309972346
 110    -0.0016179256051684
 111    0.0020703052857483
 112    -0.00047092492918665
 113    0.00045663491240679
 114    -0.0032423894509338
 115     0.010787908017656
 116    -0.013510882005389
 117    -0.0017476112259279
 118    -0.0026652990116841
 119    0.0056911146688505
 120    -0.0027117473143585
 121    -0.0061198956789611
 122    0.0096571279037135
 123    -0.0061572504403207
 124    0.0022832401521479
 125       0.0183723888262
 126    0.00037237188140816
 127    0.0010978459449096
 128    0.00050850297709578
 129    0.00055715887836807
 130    0.00094479533632482
 131    0.0022202561571834
 132    -0.014843985658282
 133      0.02617120283214
 134     0.022031273947092
 135     0.010424262850431
 136    -0.0081141814483506
 137    -0.011144368090782
 138     0.019026312230724
 139    -0.013588656120702
 140    -0.019968509034229
 141      0.02865348893069
 142    -0.031377310143968
 143    -0.038192600272128
 144    0.0017971164076347
 145    0.0025619812287934
 146    0.0016827542528712
 147    -0.0025143000162046
 148    0.0015075016426549
 149    -0.00027309835142083
 150    0.0014796704741944
 151    0.0043376537786641
 152    -0.028021275567761
 153    -0.003916668741537
 154    0.0012483394976002
 155    0.0021213025460631
 156    -0.0067908653840079
 157    0.00092261715999844
 158    0.0048477874727369
 159    -0.015718873101634
 160     0.012966980733578
 161    -0.0021987921209436
 162    -0.001737976672154
 163    -0.00075063309972346
 164    0.0016179256051684
 165    0.0020703052857483
 166    -0.00047092492918665
 167    0.00045663491240679
 168    -0.0032423894509338
 169     0.010787908017656
 170    -0.013510882005389
 171    0.0017476112259279
 172    0.0026652990116842
 173    0.0056911146688505
 174    0.0027117473143585
 175    0.0061198956789611
 176    0.0096571279037135
 177    0.0061572504403207
 178    -0.0022832401521478
 179       0.0183723888262
 180    0.00037237188140815
 181    -0.0010978459449096
 182    -0.00050850297709578
 183    0.00055715887836807
 184    0.00094479533632482
 Sym= B
 Ene=               2
 Spin= Alpha
 Occup=    1.00000
   1    0.0099393686434579
   2    -0.027848812019493
   3      0.14116223419616
   4    -0.090139061889455
   5    0.0030240316862042
   6     0.024324304953083
   7     0.002595377210212
   8    0.0086615307789923
   9    -0.082455677163782
  10    -0.0084494340048128
  11    -0.029076605768838
  12     0.083065022650044
  13     0.020264376528521
  14     0.015860621444456
  15     0.056121568856158
  16     -0.10290386419657
  17    -0.010235835520927
  18     -0.12875419157401
  19    -0.022302766262508
  20     0.026442848441545
  21    -0.049134543824118
  22    -0.0053590041564208
  23     -0.06133273514824
  24    -0.014480961475232
  25    -0.0025778499015575
  26    -0.0013585837895883
  27    -0.00068802560484324
  28    0.0039292704113296
  29    0.00052268608374416
  30    0.0040851532936561
  31    0.00057202769485915
  32    -2.5282231975781e-17
  33    -9.1662735419983e-17
  34    -7.7479681592688e-17
  35     -0.51635727634599
  36      0.10440197723127
  37    -1.0131794466286e-16
  38     -0.42578577141954
  39     0.090276726595598
  40    -9.3256218786408e-17
  41    -1.325677935409e-18
  42    -0.013666318632108
  43    0.0020344334286382
  44    -2.4939310568134e-18
  45    4.5322346369126e-19
  46    -0.0099393686434579
  47     0.027848812019493
  48     -0.14116223419616
  49     0.090139061889455
  50    -0.0030240316862042
  51     0.024324304953083
  52     0.002595377210212
  53    -0.0086615307789923
  54    -0.082455677163782
  55    -0.0084494340048128
  56     0.029076605768838
  57     0.083065022650044
  58     0.020264376528521
  59    -0.015860621444456
  60    -0.056121568856158
  61     -0.10290386419657
  62    -0.010235835520927
  63      0.12875419157401
  64     0.022302766262508
  65    -0.026442848441544
  66    -0.049134543824118
  67    -0.0053590041564208
  68      0.06133273514824
  69     0.014480961475232
  70    0.0025778499015575
  71    -0.0013585837895883
  72    -0.00068802560484324
  73    -0.0039292704113296
  74    -0.00052268608374416
  75    0.0040851532936561
  76    0.00057202769485915
  77    0.0022382241360728
  78    -0.014983462934055
  79     0.024963738945617
  80     0.026369684209939
  81    -0.0036318843989261
  82    0.0063208906190734
  83    -0.013314752885425
  84    -0.0061972869670578
  85     0.011739854643363
  86    -0.024338865470251
  87    -0.014000427954966
  88     0.018687957638965
  89    -0.041275058191449
  90    0.0008382654550666
  91    -0.00062863750085523
  92    -0.00085426076078627
  93    -0.00084092763095697
  94    -0.00024535349432113
  95    0.0027359208033927
  96    -0.018406992940788
  97     0.034977561413261
  98     0.015310148500815
  99    -0.015383096218704
 100    0.0053505317278807
 101    0.0088334200367287
 102    -0.028228076593535
 103     0.010922652634113
 104     0.017024125613593
 105    -0.042078701828591
 106    0.0099739256218272
 107      0.02093127220471
 108    0.0016079151360958
 109    -0.00067069370203951
 110    0.00038302239051879
 111    -0.001978912194358
 112    0.00024831548686426
 113    0.0021892224337316
 114     -0.01471037620269
 115     0.027354173993495
 116     0.013194588383566
 117    -0.0074004066198515
 118    -0.012722240361336
 119    0.0027047837390935
 120    -0.012759830280568
 121    -0.024461608735369
 122    0.0051620308762256
 123    -0.024456582253745
 124    -0.029557188471382
 125     0.005877307735985
 126    0.00051267781719219
 127    -0.00070452315427343
 128    -0.00040887996938923
 129    -0.00086842891548745
 130    -0.00087070083508481
 131    -0.0022382241360728
 132     0.014983462934055
 133    -0.024963738945617
 134     -0.02636968420994
 135    -0.003631884398926
 136    0.0063208906190734
 137     0.013314752885425
 138    -0.0061972869670578
 139     0.011739854643363
 140     0.024338865470251
 141    -0.014000427954966
 142     0.018687957638966
 143     0.041275058191449
 144    -0.00083826545506661
 145    -0.00062863750085522
 146    -0.00085426076078627
 147    0.00084092763095697
 148    0.00024535349432114
 149    -0.0027359208033927
 150     0.018406992940788
 151    -0.034977561413261
 152    -0.015310148500815
 153    -0.015383096218704
 154    0.0053505317278807
 155    -0.0088334200367288
 156    -0.028228076593535
 157     0.010922652634113
 158    -0.017024125613593
 159    -0.042078701828591
 160    0.0099739256218272
 161     -0.02093127220471
 162    -0.0016079151360958
 163    -0.00067069370203951
 164    0.0003830223905188
 165     0.001978912194358
 166    -0.00024831548686426
 167    -0.0021892224337316
 168      0.01471037620269
 169    -0.027354173993495
 170    -0.013194588383566
 171    -0.0074004066198515
 172    -0.012722240361336
 173    -0.0027047837390935
 174    -0.012759830280568
 175    -0.024461608735369
 176    -0.0051620308762256
 177    -0.024456582253745
 178    -0.029557188471382
 179    -0.005877307735985
 180    -0.00051267781719219
 181    -0.00070452315427343
 182    -0.00040887996938923
 183    0.00086842891548745
 184    0.00087070083508481
