[Molden Format]
made by pyscf v[2.1.1]
[Atoms] (AU)
Cr   1   24     1.56143912275337    -2.46507591990239    -1.82404491365355
Cr   2   24    -1.56139565905251     2.46513072196000     1.82399011159594
O   3   8     0.00002078698737     0.00002834589187    -0.00002645616574
N   4   7     5.12832174930954    -1.10581670549011    -0.60767356069801
H   5   1     6.65216855026694    -1.66292686427314    -1.66487895135981
H   6   1     5.63710405218294    -1.59213394419468     1.18765885421890
H   7   1     5.20084187906585     0.81566059741989    -0.65509245834172
N   8   7     1.71230729763415    -0.02251608677419    -4.99594076510539
H   9   1     0.29795878723855     1.27247165241550    -4.90823668593820
H   10   1     1.50271021425414    -0.85583806455427    -6.73026148236459
H   11   1     3.34039895052705     0.99863710888315    -5.18656310846864
N   12   7     1.41057094787259    -4.90763575303059     1.34785282752440
H   13   1     1.64193389675534    -6.79355407945465     0.97314659318890
H   14   1    -0.29048681014202    -4.81040367474334     2.24006056107205
H   15   1     2.72468082571676    -4.56691435331926     2.71738081369757
N   16   7    -2.00544350380280    -3.82433513431467    -3.04041437688297
H   17   1    -2.87205678671934    -5.05516478184926    -1.83221042023780
H   18   1    -2.03637832046193    -4.76397121413665    -4.73247136936628
H   19   1    -3.24475802163669    -2.37551046050250    -3.28123540501917
N   20   7     3.37923471211299    -5.33493873459111    -3.94755661599306
H   21   1     4.17102617885350    -4.76109883042731    -5.61685374703210
H   22   1     2.26176595533881    -6.82326057413281    -4.47610923358166
H   23   1     4.85383336053810    -6.19899521806112    -3.03922195969837
N   24   7    -5.12827828560868     1.10587339727385     0.60762064836653
H   25   1    -5.15408816501799    -0.81544705836782     0.54662784797006
H   26   1    -5.69743166898356     1.68113626520945    -1.14337690194197
H   27   1    -6.63528195761783     1.56841410187914     1.73267665553083
N   28   7    -1.71226383393328     0.02257088883181     4.99588785277390
H   29   1    -1.62991523860311     0.86667375415253     6.73575491620870
H   30   1    -0.22416876152653    -1.19157625647512     4.98456461383551
H   31   1    -3.28782110056328    -1.08746368536834     5.11339858210385
N   32   7     2.00548696750367     3.82438993637228     3.04035957482536
H   33   1     2.05186651577887     4.68410571893416     4.77402266739321
H   34   1     2.83712330958063     5.12208376337235     1.87805706574587
H   35   1     3.26582090902109     2.38241174030942     3.19051154350492
N   36   7    -1.41052748417173     4.90769055508820    -1.34790762958202
H   37   1    -1.75003190025884     6.78104976168840    -0.99229329828299
H   38   1    -2.65834387984003     4.49309409198925    -2.75785496783350
H   39   1     0.32278033988471     4.89894112313146    -2.18344058692784
N   40   7    -3.37919124841212     5.33499353664873     3.94750181393545
H   41   1    -2.26357064378777     6.83195331430581     4.45515784003860
H   42   1    -4.15358022727151     4.76963661305810     5.62761006813313
H   43   1    -4.86681766873998     6.18449345978121     3.04686590187224
[GTO]
1 0
 s    6 1.00
          51528.086349  0.0017695545768669
          7737.2103487   0.013556436258096
           1760.374847   0.067162645785071
          496.87706544    0.23295905918518
          161.46520598    0.47040576982722
          55.466352268    0.35733072606876
 s    3 1.00
          107.54732999   -0.10605255446629
          12.408671897    0.62543981484169
          5.0423628826    0.44878820793655
 s    3 1.00
          8.5461640165   -0.21819012081133
          1.3900441221    0.70422525667731
         0.56066602876    0.42488555412558
 s    1 1.00
        0.071483705972                   1
 s    1 1.00
        0.028250687604                   1
 p    5 1.00
          640.48536096  0.0093555063746755
          150.69711194   0.068993338492216
          47.503755296     0.2634118959318
          16.934120165    0.51034501651775
           6.240968059    0.33195512953954
 p    3 1.00
          3.0885463206    0.32917682676976
          1.1791047769    0.55491385190365
         0.43369774432    0.23818412855984
 p    1 1.00
              0.120675                   1
 d    4 1.00
          27.559479426   0.036950140313562
          7.4687020327    0.18821519783039
          2.4345903574    0.44641244239929
         0.78244754808     0.5681617303244
 d    1 1.00
         0.21995774311                   1
 f    1 1.00
                 1.147                   1

2 0
 s    6 1.00
          51528.086349  0.0017695545768669
          7737.2103487   0.013556436258096
           1760.374847   0.067162645785071
          496.87706544    0.23295905918518
          161.46520598    0.47040576982722
          55.466352268    0.35733072606876
 s    3 1.00
          107.54732999   -0.10605255446629
          12.408671897    0.62543981484169
          5.0423628826    0.44878820793655
 s    3 1.00
          8.5461640165   -0.21819012081133
          1.3900441221    0.70422525667731
         0.56066602876    0.42488555412558
 s    1 1.00
        0.071483705972                   1
 s    1 1.00
        0.028250687604                   1
 p    5 1.00
          640.48536096  0.0093555063746755
          150.69711194   0.068993338492216
          47.503755296     0.2634118959318
          16.934120165    0.51034501651775
           6.240968059    0.33195512953954
 p    3 1.00
          3.0885463206    0.32917682676976
          1.1791047769    0.55491385190365
         0.43369774432    0.23818412855984
 p    1 1.00
              0.120675                   1
 d    4 1.00
          27.559479426   0.036950140313562
          7.4687020327    0.18821519783039
          2.4345903574    0.44641244239929
         0.78244754808     0.5681617303244
 d    1 1.00
         0.21995774311                   1
 f    1 1.00
                 1.147                   1

3 0
 s    5 1.00
          2266.1767785  -0.0053893503921743
          340.87010191   -0.04023472138896
          77.363135167   -0.18008184205526
           21.47964494   -0.46828857657651
          6.6589433124   -0.44692617160187
 s    1 1.00
         0.80975975668                   1
 s    1 1.00
         0.25530772234                   1
 p    3 1.00
          17.721504317   0.062630248763161
           3.863550544    0.33331138482352
          1.0480920883    0.74148638308122
 p    1 1.00
         0.27641544411                   1
 d    1 1.00
                   1.2                   1

4 0
 s    5 1.00
          1712.8415853  -0.0054477995804909
          257.64812677  -0.040627174632423
          58.458245853   -0.18111962250584
          16.198367905   -0.46843975563173
          5.0052600809   -0.44616846289231
 s    1 1.00
         0.58731856571                   1
 s    1 1.00
         0.18764592253                   1
 p    3 1.00
          13.571470233  -0.058848116969522
          2.9257372874   -0.32024624762471
         0.79927750754   -0.75328226520436
 p    1 1.00
         0.21954348034                   1
 d    1 1.00
                     1                   1

5 0
 s    3 1.00
             13.010701   0.033485484812989
             1.9622572    0.23472187088125
            0.44453796    0.81377028525955
 s    1 1.00
            0.12194962                   1
 p    1 1.00
                   0.8                   1

6 0
 s    3 1.00
             13.010701   0.033485484812989
             1.9622572    0.23472187088125
            0.44453796    0.81377028525955
 s    1 1.00
            0.12194962                   1
 p    1 1.00
                   0.8                   1

7 0
 s    3 1.00
             13.010701   0.033485484812989
             1.9622572    0.23472187088125
            0.44453796    0.81377028525955
 s    1 1.00
            0.12194962                   1
 p    1 1.00
                   0.8                   1

8 0
 s    5 1.00
          1712.8415853  -0.0054477995804909
          257.64812677  -0.040627174632423
          58.458245853   -0.18111962250584
          16.198367905   -0.46843975563173
          5.0052600809   -0.44616846289231
 s    1 1.00
         0.58731856571                   1
 s    1 1.00
         0.18764592253                   1
 p    3 1.00
          13.571470233  -0.058848116969522
          2.9257372874   -0.32024624762471
         0.79927750754   -0.75328226520436
 p    1 1.00
         0.21954348034                   1
 d    1 1.00
                     1                   1

9 0
 s    3 1.00
             13.010701   0.033485484812989
             1.9622572    0.23472187088125
            0.44453796    0.81377028525955
 s    1 1.00
            0.12194962                   1
 p    1 1.00
                   0.8                   1

10 0
 s    3 1.00
             13.010701   0.033485484812989
             1.9622572    0.23472187088125
            0.44453796    0.81377028525955
 s    1 1.00
            0.12194962                   1
 p    1 1.00
                   0.8                   1

11 0
 s    3 1.00
             13.010701   0.033485484812989
             1.9622572    0.23472187088125
            0.44453796    0.81377028525955
 s    1 1.00
            0.12194962                   1
 p    1 1.00
                   0.8                   1

12 0
 s    5 1.00
          1712.8415853  -0.0054477995804909
          257.64812677  -0.040627174632423
          58.458245853   -0.18111962250584
          16.198367905   -0.46843975563173
          5.0052600809   -0.44616846289231
 s    1 1.00
         0.58731856571                   1
 s    1 1.00
         0.18764592253                   1
 p    3 1.00
          13.571470233  -0.058848116969522
          2.9257372874   -0.32024624762471
         0.79927750754   -0.75328226520436
 p    1 1.00
         0.21954348034                   1
 d    1 1.00
                     1                   1

13 0
 s    3 1.00
             13.010701   0.033485484812989
             1.9622572    0.23472187088125
            0.44453796    0.81377028525955
 s    1 1.00
            0.12194962                   1
 p    1 1.00
                   0.8                   1

14 0
 s    3 1.00
             13.010701   0.033485484812989
             1.9622572    0.23472187088125
            0.44453796    0.81377028525955
 s    1 1.00
            0.12194962                   1
 p    1 1.00
                   0.8                   1

15 0
 s    3 1.00
             13.010701   0.033485484812989
             1.9622572    0.23472187088125
            0.44453796    0.81377028525955
 s    1 1.00
            0.12194962                   1
 p    1 1.00
                   0.8                   1

16 0
 s    5 1.00
          1712.8415853  -0.0054477995804909
          257.64812677  -0.040627174632423
          58.458245853   -0.18111962250584
          16.198367905   -0.46843975563173
          5.0052600809   -0.44616846289231
 s    1 1.00
         0.58731856571                   1
 s    1 1.00
         0.18764592253                   1
 p    3 1.00
          13.571470233  -0.058848116969522
          2.9257372874   -0.32024624762471
         0.79927750754   -0.75328226520436
 p    1 1.00
         0.21954348034                   1
 d    1 1.00
                     1                   1

17 0
 s    3 1.00
             13.010701   0.033485484812989
             1.9622572    0.23472187088125
            0.44453796    0.81377028525955
 s    1 1.00
            0.12194962                   1
 p    1 1.00
                   0.8                   1

18 0
 s    3 1.00
             13.010701   0.033485484812989
             1.9622572    0.23472187088125
            0.44453796    0.81377028525955
 s    1 1.00
            0.12194962                   1
 p    1 1.00
                   0.8                   1

19 0
 s    3 1.00
             13.010701   0.033485484812989
             1.9622572    0.23472187088125
            0.44453796    0.81377028525955
 s    1 1.00
            0.12194962                   1
 p    1 1.00
                   0.8                   1

20 0
 s    5 1.00
          1712.8415853  -0.0054477995804909
          257.64812677  -0.040627174632423
          58.458245853   -0.18111962250584
          16.198367905   -0.46843975563173
          5.0052600809   -0.44616846289231
 s    1 1.00
         0.58731856571                   1
 s    1 1.00
         0.18764592253                   1
 p    3 1.00
          13.571470233  -0.058848116969522
          2.9257372874   -0.32024624762471
         0.79927750754   -0.75328226520436
 p    1 1.00
         0.21954348034                   1
 d    1 1.00
                     1                   1

21 0
 s    3 1.00
             13.010701   0.033485484812989
             1.9622572    0.23472187088125
            0.44453796    0.81377028525955
 s    1 1.00
            0.12194962                   1
 p    1 1.00
                   0.8                   1

22 0
 s    3 1.00
             13.010701   0.033485484812989
             1.9622572    0.23472187088125
            0.44453796    0.81377028525955
 s    1 1.00
            0.12194962                   1
 p    1 1.00
                   0.8                   1

23 0
 s    3 1.00
             13.010701   0.033485484812989
             1.9622572    0.23472187088125
            0.44453796    0.81377028525955
 s    1 1.00
            0.12194962                   1
 p    1 1.00
                   0.8                   1

24 0
 s    5 1.00
          1712.8415853  -0.0054477995804909
          257.64812677  -0.040627174632423
          58.458245853   -0.18111962250584
          16.198367905   -0.46843975563173
          5.0052600809   -0.44616846289231
 s    1 1.00
         0.58731856571                   1
 s    1 1.00
         0.18764592253                   1
 p    3 1.00
          13.571470233  -0.058848116969522
          2.9257372874   -0.32024624762471
         0.79927750754   -0.75328226520436
 p    1 1.00
         0.21954348034                   1
 d    1 1.00
                     1                   1

25 0
 s    3 1.00
             13.010701   0.033485484812989
             1.9622572    0.23472187088125
            0.44453796    0.81377028525955
 s    1 1.00
            0.12194962                   1
 p    1 1.00
                   0.8                   1

26 0
 s    3 1.00
             13.010701   0.033485484812989
             1.9622572    0.23472187088125
            0.44453796    0.81377028525955
 s    1 1.00
            0.12194962                   1
 p    1 1.00
                   0.8                   1

27 0
 s    3 1.00
             13.010701   0.033485484812989
             1.9622572    0.23472187088125
            0.44453796    0.81377028525955
 s    1 1.00
            0.12194962                   1
 p    1 1.00
                   0.8                   1

28 0
 s    5 1.00
          1712.8415853  -0.0054477995804909
          257.64812677  -0.040627174632423
          58.458245853   -0.18111962250584
          16.198367905   -0.46843975563173
          5.0052600809   -0.44616846289231
 s    1 1.00
         0.58731856571                   1
 s    1 1.00
         0.18764592253                   1
 p    3 1.00
          13.571470233  -0.058848116969522
          2.9257372874   -0.32024624762471
         0.79927750754   -0.75328226520436
 p    1 1.00
         0.21954348034                   1
 d    1 1.00
                     1                   1

29 0
 s    3 1.00
             13.010701   0.033485484812989
             1.9622572    0.23472187088125
            0.44453796    0.81377028525955
 s    1 1.00
            0.12194962                   1
 p    1 1.00
                   0.8                   1

30 0
 s    3 1.00
             13.010701   0.033485484812989
             1.9622572    0.23472187088125
            0.44453796    0.81377028525955
 s    1 1.00
            0.12194962                   1
 p    1 1.00
                   0.8                   1

31 0
 s    3 1.00
             13.010701   0.033485484812989
             1.9622572    0.23472187088125
            0.44453796    0.81377028525955
 s    1 1.00
            0.12194962                   1
 p    1 1.00
                   0.8                   1

32 0
 s    5 1.00
          1712.8415853  -0.0054477995804909
          257.64812677  -0.040627174632423
          58.458245853   -0.18111962250584
          16.198367905   -0.46843975563173
          5.0052600809   -0.44616846289231
 s    1 1.00
         0.58731856571                   1
 s    1 1.00
         0.18764592253                   1
 p    3 1.00
          13.571470233  -0.058848116969522
          2.9257372874   -0.32024624762471
         0.79927750754   -0.75328226520436
 p    1 1.00
         0.21954348034                   1
 d    1 1.00
                     1                   1

33 0
 s    3 1.00
             13.010701   0.033485484812989
             1.9622572    0.23472187088125
            0.44453796    0.81377028525955
 s    1 1.00
            0.12194962                   1
 p    1 1.00
                   0.8                   1

34 0
 s    3 1.00
             13.010701   0.033485484812989
             1.9622572    0.23472187088125
            0.44453796    0.81377028525955
 s    1 1.00
            0.12194962                   1
 p    1 1.00
                   0.8                   1

35 0
 s    3 1.00
             13.010701   0.033485484812989
             1.9622572    0.23472187088125
            0.44453796    0.81377028525955
 s    1 1.00
            0.12194962                   1
 p    1 1.00
                   0.8                   1

36 0
 s    5 1.00
          1712.8415853  -0.0054477995804909
          257.64812677  -0.040627174632423
          58.458245853   -0.18111962250584
          16.198367905   -0.46843975563173
          5.0052600809   -0.44616846289231
 s    1 1.00
         0.58731856571                   1
 s    1 1.00
         0.18764592253                   1
 p    3 1.00
          13.571470233  -0.058848116969522
          2.9257372874   -0.32024624762471
         0.79927750754   -0.75328226520436
 p    1 1.00
         0.21954348034                   1
 d    1 1.00
                     1                   1

37 0
 s    3 1.00
             13.010701   0.033485484812989
             1.9622572    0.23472187088125
            0.44453796    0.81377028525955
 s    1 1.00
            0.12194962                   1
 p    1 1.00
                   0.8                   1

38 0
 s    3 1.00
             13.010701   0.033485484812989
             1.9622572    0.23472187088125
            0.44453796    0.81377028525955
 s    1 1.00
            0.12194962                   1
 p    1 1.00
                   0.8                   1

39 0
 s    3 1.00
             13.010701   0.033485484812989
             1.9622572    0.23472187088125
            0.44453796    0.81377028525955
 s    1 1.00
            0.12194962                   1
 p    1 1.00
                   0.8                   1

40 0
 s    5 1.00
          1712.8415853  -0.0054477995804909
          257.64812677  -0.040627174632423
          58.458245853   -0.18111962250584
          16.198367905   -0.46843975563173
          5.0052600809   -0.44616846289231
 s    1 1.00
         0.58731856571                   1
 s    1 1.00
         0.18764592253                   1
 p    3 1.00
          13.571470233  -0.058848116969522
          2.9257372874   -0.32024624762471
         0.79927750754   -0.75328226520436
 p    1 1.00
         0.21954348034                   1
 d    1 1.00
                     1                   1

41 0
 s    3 1.00
             13.010701   0.033485484812989
             1.9622572    0.23472187088125
            0.44453796    0.81377028525955
 s    1 1.00
            0.12194962                   1
 p    1 1.00
                   0.8                   1

42 0
 s    3 1.00
             13.010701   0.033485484812989
             1.9622572    0.23472187088125
            0.44453796    0.81377028525955
 s    1 1.00
            0.12194962                   1
 p    1 1.00
                   0.8                   1

43 0
 s    3 1.00
             13.010701   0.033485484812989
             1.9622572    0.23472187088125
            0.44453796    0.81377028525955
 s    1 1.00
            0.12194962                   1
 p    1 1.00
                   0.8                   1

[5d]
[7f]
[9g]

[MO]
 Sym= A
 Ene=               0
 Spin= Alpha
 Occup=    1.00000
   1    0.0048021442124752
   2    -0.0088950597803244
   3     0.080212136436506
   4    -0.069689474876013
   5    0.0067564132371361
   6    0.0026154367595659
   7    -0.0041168187608796
   8    -0.0030324925620429
   9    -0.0031048829455557
  10    0.0048466623639152
  11    0.0035205689971428
  12     0.020479663465255
  13    -0.031531946395658
  14    -0.022294406662164
  15      0.01630990636102
  16     0.084300563772012
  17     -0.13407792585034
  18     0.053519596678261
  19      0.11379227027591
  20    0.0062721051803007
  21     0.032504442568522
  22    -0.051491017865581
  23     0.020735781077437
  24     0.044039014562795
  25    0.0049004839439227
  26    0.0012986815604006
  27    -0.0020618937798878
  28    0.0036554337858229
  29    0.0077400942699917
  30    -0.0055451163614257
  31    -0.00068019766531426
  32    -0.0052158089699192
  33      0.01397142028765
  34    -0.080705554692252
  35       0.0638580627697
  36    -0.00074845520344764
  37    0.0094691725139088
  38    -0.014950858154724
  39     -0.01105507736098
  40     -0.03806985833363
  41      0.06009803244508
  42      0.04442928376128
  43     0.011961818680274
  44     -0.01851416237994
  45    -0.013180829097378
  46    -0.014030958643928
  47    -0.075096546411902
  48      0.11857052381994
  49    -0.047960142625649
  50      -0.1012345290033
  51    -0.005211523396013
  52    -0.028474180094394
  53     0.045002119781187
  54    -0.018224221345044
  55    -0.038391589846985
  56    0.0037111475199713
  57    0.00097920596403582
  58    -0.001561319944949
  59    0.0027645403711609
  60    0.0058664508077656
  61    -0.0041999627623175
  62    -0.00051027976288106
  63    -0.048755221868052
  64     -0.13351226187422
  65    -0.097684396807114
  66     -0.22935422145914
  67      0.36175915793936
  68      0.26758475324393
  69     -0.20534974362765
  70      0.32376035766145
  71      0.23938626732564
  72    0.00029581940077013
  73    0.0015857103655583
  74    -0.0025102769941662
  75    0.0010155574480446
  76    0.0021506903109948
  77    0.0090923091021505
  78     0.039087227624289
  79     0.022016686468308
  80     0.014185625001346
  81     0.012571247364257
  82    0.0098797368327839
  83    -0.012998531222576
  84     -0.00963505463219
  85    -0.0081440979665819
  86    0.00057552316782432
  87    0.00085289438218052
  88    0.0001298978152978
  89    -0.0011299121578876
  90    0.0010039206144257
  91    0.0071382576478755
  92    -0.0016365312732596
  93    -0.0024704784775288
  94    0.00017935578443926
  95    0.00050632011573723
  96    0.0067826875964821
  97    0.00084146882639696
  98    -0.00074575174880936
  99    -0.00018836597027025
 100    -0.0010904909506229
 101    0.0042965436170719
 102    0.0028139633265972
 103    0.00067227967074775
 104    -0.00090734192720517
 105    -0.00023306535775014
 106    0.0088678201079837
 107     0.038443877206262
 108     0.021734890613433
 109    -0.0034332159729874
 110     0.017893206674828
 111    -0.011257921141303
 112    0.0016619604279707
 113    -0.014913282023814
 114     0.011096045067249
 115    -0.0012715711873758
 116    0.00076068093806662
 117    -0.00070661667582531
 118    -0.00044546057098313
 119    -8.2299474561502e-05
 120    0.0029021624850927
 121    0.0038573433256855
 122    0.00073245906982063
 123    -0.00036714737895638
 124    -0.0010151918093002
 125    0.0074007950502905
 126    -0.0011893140861078
 127    -5.6840251181158e-05
 128    -2.5174631024334e-05
 129     0.002426835502242
 130     0.007525911156196
 131    0.00029640254034349
 132    -0.00089360106157398
 133    -0.0011244387766312
 134    0.00086378509239909
 135    0.0090228007056409
 136     0.038923578641253
 137     0.021785491239788
 138    -0.0045832280284101
 139    -0.0065227232439753
 140     0.019537980752978
 141    0.0029149577853502
 142    0.0066424355699668
 143    -0.016401863008911
 144    0.0011822263940114
 145    -0.00031822270539296
 146    0.00012594500462982
 147    0.0011628599898314
 148    0.00071565671546266
 149    0.0071602061705503
 150    -0.0015627560075095
 151    -0.00028037921957251
 152    0.0024262796673106
 153    -0.000636663497562
 154    0.0043294106627096
 155    0.0027787755472864
 156    0.00077797194270662
 157    -0.00077885851377501
 158    -0.00029556804911163
 159    0.0068546021982984
 160    0.0009149744302234
 161    -0.00043539358669294
 162    0.00011534184811362
 163    -0.0012480776443743
 164    0.0089825329901223
 165     0.038688877167358
 166     0.022358157386008
 167    -0.021421609720521
 168    -0.00064706715499285
 169    -0.0020310930383179
 170     0.018396741735749
 171    0.0023005414802442
 172    0.0023096829590924
 173    -0.00047281056826831
 174    -0.00039626934463668
 175    -0.001180093124989
 176    0.0010290613506487
 177    -0.00053482402602974
 178    0.0071931652173077
 179    0.00065735394937802
 180    0.0011939801602639
 181    0.00078368842463595
 182    -0.00040527002480187
 183    0.0072137607122325
 184    -0.0014044540903962
 185    0.0010885639482742
 186    0.0013570044335831
 187    0.0017736379032241
 188    0.0035163900627917
 189      0.00320214356501
 190    9.4594043602844e-05
 191    -0.0011069739452734
 192    -0.00049781229017696
 193    0.0086653917570239
 194     0.033028669664815
 195     0.046779835493286
 196    0.0063644972548541
 197    -0.009979700508566
 198    -0.0073895579990108
 199    -0.016067416460693
 200     0.024942322757741
 201     0.018101115658425
 202    0.00012069632134762
 203    0.00059125034671616
 204    -0.00093534912683491
 205    0.00037642228158141
 206    0.00081976146016324
 207    0.0065127410106444
 208    -0.00055907447445494
 209    -0.00057297354371413
 210    -0.00035054468142591
 211    0.0012172808851586
 212    0.0065115460626142
 213    -0.00062065953863832
 214     0.000752304047438
 215     0.001085521193558
 216    0.00042480694504224
 217    0.0068022034702233
 218    -0.00024293144579926
 219    -0.0011126154749415
 220    0.00070109685957611
 221    -0.00059421665679991
 222    -0.0065375428004473
 223    -0.012888264298661
 224    -0.010582765145723
 225     0.022678745650902
 226    0.0016350906204324
 227    0.0028653990620946
 228     -0.01491671190812
 229    -0.0043958222667956
 230    -0.0044796872768507
 231    -0.00035247451050614
 232    -0.0010014543268112
 233    -3.1431755264858e-05
 234    0.0013835860185567
 235    -0.0010105636769497
 236    -0.0052867819168397
 237    -0.004990514404357
 238    1.9603444521661e-05
 239    -0.00041059487983596
 240    4.9540010955953e-05
 241    0.00082578369750266
 242    -0.0014050560227737
 243    -0.0010161997419584
 244    -4.7388543734656e-05
 245    0.0002498513339664
 246     0.011443176601292
 247    0.0024892666312756
 248    -0.0004895661516591
 249    -0.00010577836810361
 250    -0.00079133318439564
 251    -0.0065239076024926
 252    -0.012816042127841
 253    -0.010635620658174
 254    0.0048171634498621
 255    0.0078299478891639
 256    -0.020986064412696
 257    -0.0017145660381659
 258    -0.0092968637244022
 259      0.01344986775658
 260    0.0015211288765224
 261    -0.00071019122764734
 262    0.00084287531271562
 263    0.00027436565899596
 264    0.00037644964865912
 265     0.010762019485788
 266    0.0022678623593202
 267    -0.0005875611680631
 268    -0.00075333789116522
 269    0.0002962739365586
 270    -0.0060343900999148
 271    -0.005581318240772
 272    0.00044726291659801
 273    -0.00020465557060553
 274    -0.00014013924532977
 275    0.0019189719074335
 276    -0.00094630410552961
 277    3.4581792906164e-05
 278    2.6135837911124e-05
 279    0.0011468537112574
 280    -0.0065085386523436
 281    -0.012777423627084
 282    -0.010614507270482
 283    -0.015754610002631
 284    -0.013154558295929
 285    -0.010126495933489
 286     0.014016503446983
 287    0.0067663330115651
 288     0.005137856218776
 289    0.00077513286221256
 290    0.00029691793159506
 291    0.0012800277887749
 292    -0.00094286116174858
 293    0.00076143396036538
 294     0.010885504787223
 295     0.002301227880176
 296    0.0007256888217219
 297    0.00054324732458075
 298    -0.00038880995470706
 299    0.0017073419297692
 300    -0.0010430251917681
 301    0.00050037660803599
 302    0.00050428852674507
 303    0.00087684891507962
 304    -0.005905676303248
 305    -0.0054911944912026
 306    0.0001861363244978
 307    -0.00045243723173438
 308    1.9354841706419e-05
 309    -0.0065240526603041
 310    -0.012819075290456
 311    -0.010699162975359
 312    0.0028216912160715
 313    -0.018385356444433
 314     0.013273259860997
 315    -0.00020157635727355
 316      0.01060675255733
 317    -0.012288064643919
 318    -0.0011472963811485
 319    0.00037318484043397
 320    -1.863266483956e-05
 321    -0.0014891183289972
 322    -0.00080420483499228
 323     0.011921692774957
 324    0.0026997923151704
 325    -0.00013378203897471
 326    2.1717622185602e-05
 327    -0.0008483543421327
 328    -0.00038717743261481
 329    -0.0022374789422286
 330    -6.9059439076767e-05
 331    0.00082401119653251
 332    -0.00033168514814126
 333    -0.0043778938692622
 334    -0.0044287169967581
 335    0.00027380360652974
 336    0.00014764468480652
 337    -0.00017325809335824
 338    0.0064848845669634
 339     0.026103672365869
 340    -0.0040084889296409
 341    -0.0097662118216702
 342     0.015411983110616
 343     0.011366554410587