[Molden Format]
made by pyscf v[2.1.1]
[Atoms] (AU)
Cr   1   24     1.56143912275337    -2.46507591990239    -1.82404491365355
Cr   2   24    -1.56139565905251     2.46513072196000     1.82399011159594
O   3   8     0.00002078698737     0.00002834589187    -0.00002645616574
N   4   7     5.12832174930954    -1.10581670549011    -0.60767356069801
H   5   1     6.65216855026694    -1.66292686427314    -1.66487895135981
H   6   1     5.63710405218294    -1.59213394419468     1.18765885421890
H   7   1     5.20084187906585     0.81566059741989    -0.65509245834172
N   8   7     1.71230729763415    -0.02251608677419    -4.99594076510539
H   9   1     0.29795878723855     1.27247165241550    -4.90823668593820
H   10   1     1.50271021425414    -0.85583806455427    -6.73026148236459
H   11   1     3.34039895052705     0.99863710888315    -5.18656310846864
N   12   7     1.41057094787259    -4.90763575303059     1.34785282752440
H   13   1     1.64193389675534    -6.79355407945465     0.97314659318890
H   14   1    -0.29048681014202    -4.81040367474334     2.24006056107205
H   15   1     2.72468082571676    -4.56691435331926     2.71738081369757
N   16   7    -2.00544350380280    -3.82433513431467    -3.04041437688297
H   17   1    -2.87205678671934    -5.05516478184926    -1.83221042023780
H   18   1    -2.03637832046193    -4.76397121413665    -4.73247136936628
H   19   1    -3.24475802163669    -2.37551046050250    -3.28123540501917
N   20   7     3.37923471211299    -5.33493873459111    -3.94755661599306
H   21   1     4.17102617885350    -4.76109883042731    -5.61685374703210
H   22   1     2.26176595533881    -6.82326057413281    -4.47610923358166
H   23   1     4.85383336053810    -6.19899521806112    -3.03922195969837
N   24   7    -5.12827828560868     1.10587339727385     0.60762064836653
H   25   1    -5.15408816501799    -0.81544705836782     0.54662784797006
H   26   1    -5.69743166898356     1.68113626520945    -1.14337690194197
H   27   1    -6.63528195761783     1.56841410187914     1.73267665553083
N   28   7    -1.71226383393328     0.02257088883181     4.99588785277390
H   29   1    -1.62991523860311     0.86667375415253     6.73575491620870
H   30   1    -0.22416876152653    -1.19157625647512     4.98456461383551
H   31   1    -3.28782110056328    -1.08746368536834     5.11339858210385
N   32   7     2.00548696750367     3.82438993637228     3.04035957482536
H   33   1     2.05186651577887     4.68410571893416     4.77402266739321
H   34   1     2.83712330958063     5.12208376337235     1.87805706574587
H   35   1     3.26582090902109     2.38241174030942     3.19051154350492
N   36   7    -1.41052748417173     4.90769055508820    -1.34790762958202
H   37   1    -1.75003190025884     6.78104976168840    -0.99229329828299
H   38   1    -2.65834387984003     4.49309409198925    -2.75785496783350
H   39   1     0.32278033988471     4.89894112313146    -2.18344058692784
N   40   7    -3.37919124841212     5.33499353664873     3.94750181393545
H   41   1    -2.26357064378777     6.83195331430581     4.45515784003860
H   42   1    -4.15358022727151     4.76963661305810     5.62761006813313
H   43   1    -4.86681766873998     6.18449345978121     3.04686590187224
[GTO]
1 0
 s    6 1.00
          51528.086349  0.0017695545768669
          7737.2103487   0.013556436258096
           1760.374847   0.067162645785071
          496.87706544    0.23295905918518
          161.46520598    0.47040576982722
          55.466352268    0.35733072606876
 s    3 1.00
          107.54732999   -0.10605255446629
          12.408671897    0.62543981484169
          5.0423628826    0.44878820793655
 s    3 1.00
          8.5461640165   -0.21819012081133
          1.3900441221    0.70422525667731
         0.56066602876    0.42488555412558
 s    1 1.00
        0.071483705972                   1
 s    1 1.00
        0.028250687604                   1
 p    5 1.00
          640.48536096  0.0093555063746755
          150.69711194   0.068993338492216
          47.503755296     0.2634118959318
          16.934120165    0.51034501651775
           6.240968059    0.33195512953954
 p    3 1.00
          3.0885463206    0.32917682676976
          1.1791047769    0.55491385190365
         0.43369774432    0.23818412855984
 p    1 1.00
              0.120675                   1
 d    4 1.00
          27.559479426   0.036950140313562
          7.4687020327    0.18821519783039
          2.4345903574    0.44641244239929
         0.78244754808     0.5681617303244
 d    1 1.00
         0.21995774311                   1
 f    1 1.00
                 1.147                   1

2 0
 s    6 1.00
          51528.086349  0.0017695545768669
          7737.2103487   0.013556436258096
           1760.374847   0.067162645785071
          496.87706544    0.23295905918518
          161.46520598    0.47040576982722
          55.466352268    0.35733072606876
 s    3 1.00
          107.54732999   -0.10605255446629
          12.408671897    0.62543981484169
          5.0423628826    0.44878820793655
 s    3 1.00
          8.5461640165   -0.21819012081133
          1.3900441221    0.70422525667731
         0.56066602876    0.42488555412558
 s    1 1.00
        0.071483705972                   1
 s    1 1.00
        0.028250687604                   1
 p    5 1.00
          640.48536096  0.0093555063746755
          150.69711194   0.068993338492216
          47.503755296     0.2634118959318
          16.934120165    0.51034501651775
           6.240968059    0.33195512953954
 p    3 1.00
          3.0885463206    0.32917682676976
          1.1791047769    0.55491385190365
         0.43369774432    0.23818412855984
 p    1 1.00
              0.120675                   1
 d    4 1.00
          27.559479426   0.036950140313562
          7.4687020327    0.18821519783039
          2.4345903574    0.44641244239929
         0.78244754808     0.5681617303244
 d    1 1.00
         0.21995774311                   1
 f    1 1.00
                 1.147                   1

3 0
 s    5 1.00
          2266.1767785  -0.0053893503921743
          340.87010191   -0.04023472138896
          77.363135167   -0.18008184205526
           21.47964494   -0.46828857657651
          6.6589433124   -0.44692617160187
 s    1 1.00
         0.80975975668                   1
 s    1 1.00
         0.25530772234                   1
 p    3 1.00
          17.721504317   0.062630248763161
           3.863550544    0.33331138482352
          1.0480920883    0.74148638308122
 p    1 1.00
         0.27641544411                   1
 d    1 1.00
                   1.2                   1

4 0
 s    5 1.00
          1712.8415853  -0.0054477995804909
          257.64812677  -0.040627174632423
          58.458245853   -0.18111962250584
          16.198367905   -0.46843975563173
          5.0052600809   -0.44616846289231
 s    1 1.00
         0.58731856571                   1
 s    1 1.00
         0.18764592253                   1
 p    3 1.00
          13.571470233  -0.058848116969522
          2.9257372874   -0.32024624762471
         0.79927750754   -0.75328226520436
 p    1 1.00
         0.21954348034                   1
 d    1 1.00
                     1                   1

5 0
 s    3 1.00
             13.010701   0.033485484812989
             1.9622572    0.23472187088125
            0.44453796    0.81377028525955
 s    1 1.00
            0.12194962                   1
 p    1 1.00
                   0.8                   1

6 0
 s    3 1.00
             13.010701   0.033485484812989
             1.9622572    0.23472187088125
            0.44453796    0.81377028525955
 s    1 1.00
            0.12194962                   1
 p    1 1.00
                   0.8                   1

7 0
 s    3 1.00
             13.010701   0.033485484812989
             1.9622572    0.23472187088125
            0.44453796    0.81377028525955
 s    1 1.00
            0.12194962                   1
 p    1 1.00
                   0.8                   1

8 0
 s    5 1.00
          1712.8415853  -0.0054477995804909
          257.64812677  -0.040627174632423
          58.458245853   -0.18111962250584
          16.198367905   -0.46843975563173
          5.0052600809   -0.44616846289231
 s    1 1.00
         0.58731856571                   1
 s    1 1.00
         0.18764592253                   1
 p    3 1.00
          13.571470233  -0.058848116969522
          2.9257372874   -0.32024624762471
         0.79927750754   -0.75328226520436
 p    1 1.00
         0.21954348034                   1
 d    1 1.00
                     1                   1

9 0
 s    3 1.00
             13.010701   0.033485484812989
             1.9622572    0.23472187088125
            0.44453796    0.81377028525955
 s    1 1.00
            0.12194962                   1
 p    1 1.00
                   0.8                   1

10 0
 s    3 1.00
             13.010701   0.033485484812989
             1.9622572    0.23472187088125
            0.44453796    0.81377028525955
 s    1 1.00
            0.12194962                   1
 p    1 1.00
                   0.8                   1

11 0
 s    3 1.00
             13.010701   0.033485484812989
             1.9622572    0.23472187088125
            0.44453796    0.81377028525955
 s    1 1.00
            0.12194962                   1
 p    1 1.00
                   0.8                   1

12 0
 s    5 1.00
          1712.8415853  -0.0054477995804909
          257.64812677  -0.040627174632423
          58.458245853   -0.18111962250584
          16.198367905   -0.46843975563173
          5.0052600809   -0.44616846289231
 s    1 1.00
         0.58731856571                   1
 s    1 1.00
         0.18764592253                   1
 p    3 1.00
          13.571470233  -0.058848116969522
          2.9257372874   -0.32024624762471
         0.79927750754   -0.75328226520436
 p    1 1.00
         0.21954348034                   1
 d    1 1.00
                     1                   1

13 0
 s    3 1.00
             13.010701   0.033485484812989
             1.9622572    0.23472187088125
            0.44453796    0.81377028525955
 s    1 1.00
            0.12194962                   1
 p    1 1.00
                   0.8                   1

14 0
 s    3 1.00
             13.010701   0.033485484812989
             1.9622572    0.23472187088125
            0.44453796    0.81377028525955
 s    1 1.00
            0.12194962                   1
 p    1 1.00
                   0.8                   1

15 0
 s    3 1.00
             13.010701   0.033485484812989
             1.9622572    0.23472187088125
            0.44453796    0.81377028525955
 s    1 1.00
            0.12194962                   1
 p    1 1.00
                   0.8                   1

16 0
 s    5 1.00
          1712.8415853  -0.0054477995804909
          257.64812677  -0.040627174632423
          58.458245853   -0.18111962250584
          16.198367905   -0.46843975563173
          5.0052600809   -0.44616846289231
 s    1 1.00
         0.58731856571                   1
 s    1 1.00
         0.18764592253                   1
 p    3 1.00
          13.571470233  -0.058848116969522
          2.9257372874   -0.32024624762471
         0.79927750754   -0.75328226520436
 p    1 1.00
         0.21954348034                   1
 d    1 1.00
                     1                   1

17 0
 s    3 1.00
             13.010701   0.033485484812989
             1.9622572    0.23472187088125
            0.44453796    0.81377028525955
 s    1 1.00
            0.12194962                   1
 p    1 1.00
                   0.8                   1

18 0
 s    3 1.00
             13.010701   0.033485484812989
             1.9622572    0.23472187088125
            0.44453796    0.81377028525955
 s    1 1.00
            0.12194962                   1
 p    1 1.00
                   0.8                   1

19 0
 s    3 1.00
             13.010701   0.033485484812989
             1.9622572    0.23472187088125
            0.44453796    0.81377028525955
 s    1 1.00
            0.12194962                   1
 p    1 1.00
                   0.8                   1

20 0
 s    5 1.00
          1712.8415853  -0.0054477995804909
          257.64812677  -0.040627174632423
          58.458245853   -0.18111962250584
          16.198367905   -0.46843975563173
          5.0052600809   -0.44616846289231
 s    1 1.00
         0.58731856571                   1
 s    1 1.00
         0.18764592253                   1
 p    3 1.00
          13.571470233  -0.058848116969522
          2.9257372874   -0.32024624762471
         0.79927750754   -0.75328226520436
 p    1 1.00
         0.21954348034                   1
 d    1 1.00
                     1                   1

21 0
 s    3 1.00
             13.010701   0.033485484812989
             1.9622572    0.23472187088125
            0.44453796    0.81377028525955
 s    1 1.00
            0.12194962                   1
 p    1 1.00
                   0.8                   1

22 0
 s    3 1.00
             13.010701   0.033485484812989
             1.9622572    0.23472187088125
            0.44453796    0.81377028525955
 s    1 1.00
            0.12194962                   1
 p    1 1.00
                   0.8                   1

23 0
 s    3 1.00
             13.010701   0.033485484812989
             1.9622572    0.23472187088125
            0.44453796    0.81377028525955
 s    1 1.00
            0.12194962                   1
 p    1 1.00
                   0.8                   1

24 0
 s    5 1.00
          1712.8415853  -0.0054477995804909
          257.64812677  -0.040627174632423
          58.458245853   -0.18111962250584
          16.198367905   -0.46843975563173
          5.0052600809   -0.44616846289231
 s    1 1.00
         0.58731856571                   1
 s    1 1.00
         0.18764592253                   1
 p    3 1.00
          13.571470233  -0.058848116969522
          2.9257372874   -0.32024624762471
         0.79927750754   -0.75328226520436
 p    1 1.00
         0.21954348034                   1
 d    1 1.00
                     1                   1

25 0
 s    3 1.00
             13.010701   0.033485484812989
             1.9622572    0.23472187088125
            0.44453796    0.81377028525955
 s    1 1.00
            0.12194962                   1
 p    1 1.00
                   0.8                   1

26 0
 s    3 1.00
             13.010701   0.033485484812989
             1.9622572    0.23472187088125
            0.44453796    0.81377028525955
 s    1 1.00
            0.12194962                   1
 p    1 1.00
                   0.8                   1

27 0
 s    3 1.00
             13.010701   0.033485484812989
             1.9622572    0.23472187088125
            0.44453796    0.81377028525955
 s    1 1.00
            0.12194962                   1
 p    1 1.00
                   0.8                   1

28 0
 s    5 1.00
          1712.8415853  -0.0054477995804909
          257.64812677  -0.040627174632423
          58.458245853   -0.18111962250584
          16.198367905   -0.46843975563173
          5.0052600809   -0.44616846289231
 s    1 1.00
         0.58731856571                   1
 s    1 1.00
         0.18764592253                   1
 p    3 1.00
          13.571470233  -0.058848116969522
          2.9257372874   -0.32024624762471
         0.79927750754   -0.75328226520436
 p    1 1.00
         0.21954348034                   1
 d    1 1.00
                     1                   1

29 0
 s    3 1.00
             13.010701   0.033485484812989
             1.9622572    0.23472187088125
            0.44453796    0.81377028525955
 s    1 1.00
            0.12194962                   1
 p    1 1.00
                   0.8                   1

30 0
 s    3 1.00
             13.010701   0.033485484812989
             1.9622572    0.23472187088125
            0.44453796    0.81377028525955
 s    1 1.00
            0.12194962                   1
 p    1 1.00
                   0.8                   1

31 0
 s    3 1.00
             13.010701   0.033485484812989
             1.9622572    0.23472187088125
            0.44453796    0.81377028525955
 s    1 1.00
            0.12194962                   1
 p    1 1.00
                   0.8                   1

32 0
 s    5 1.00
          1712.8415853  -0.0054477995804909
          257.64812677  -0.040627174632423
          58.458245853   -0.18111962250584
          16.198367905   -0.46843975563173
          5.0052600809   -0.44616846289231
 s    1 1.00
         0.58731856571                   1
 s    1 1.00
         0.18764592253                   1
 p    3 1.00
          13.571470233  -0.058848116969522
          2.9257372874   -0.32024624762471
         0.79927750754   -0.75328226520436
 p    1 1.00
         0.21954348034                   1
 d    1 1.00
                     1                   1

33 0
 s    3 1.00
             13.010701   0.033485484812989
             1.9622572    0.23472187088125
            0.44453796    0.81377028525955
 s    1 1.00
            0.12194962                   1
 p    1 1.00
                   0.8                   1

34 0
 s    3 1.00
             13.010701   0.033485484812989
             1.9622572    0.23472187088125
            0.44453796    0.81377028525955
 s    1 1.00
            0.12194962                   1
 p    1 1.00
                   0.8                   1

35 0
 s    3 1.00
             13.010701   0.033485484812989
             1.9622572    0.23472187088125
            0.44453796    0.81377028525955
 s    1 1.00
            0.12194962                   1
 p    1 1.00
                   0.8                   1

36 0
 s    5 1.00
          1712.8415853  -0.0054477995804909
          257.64812677  -0.040627174632423
          58.458245853   -0.18111962250584
          16.198367905   -0.46843975563173
          5.0052600809   -0.44616846289231
 s    1 1.00
         0.58731856571                   1
 s    1 1.00
         0.18764592253                   1
 p    3 1.00
          13.571470233  -0.058848116969522
          2.9257372874   -0.32024624762471
         0.79927750754   -0.75328226520436
 p    1 1.00
         0.21954348034                   1
 d    1 1.00
                     1                   1

37 0
 s    3 1.00
             13.010701   0.033485484812989
             1.9622572    0.23472187088125
            0.44453796    0.81377028525955
 s    1 1.00
            0.12194962                   1
 p    1 1.00
                   0.8                   1

38 0
 s    3 1.00
             13.010701   0.033485484812989
             1.9622572    0.23472187088125
            0.44453796    0.81377028525955
 s    1 1.00
            0.12194962                   1
 p    1 1.00
                   0.8                   1

39 0
 s    3 1.00
             13.010701   0.033485484812989
             1.9622572    0.23472187088125
            0.44453796    0.81377028525955
 s    1 1.00
            0.12194962                   1
 p    1 1.00
                   0.8                   1

40 0
 s    5 1.00
          1712.8415853  -0.0054477995804909
          257.64812677  -0.040627174632423
          58.458245853   -0.18111962250584
          16.198367905   -0.46843975563173
          5.0052600809   -0.44616846289231
 s    1 1.00
         0.58731856571                   1
 s    1 1.00
         0.18764592253                   1
 p    3 1.00
          13.571470233  -0.058848116969522
          2.9257372874   -0.32024624762471
         0.79927750754   -0.75328226520436
 p    1 1.00
         0.21954348034                   1
 d    1 1.00
                     1                   1

41 0
 s    3 1.00
             13.010701   0.033485484812989
             1.9622572    0.23472187088125
            0.44453796    0.81377028525955
 s    1 1.00
            0.12194962                   1
 p    1 1.00
                   0.8                   1

42 0
 s    3 1.00
             13.010701   0.033485484812989
             1.9622572    0.23472187088125
            0.44453796    0.81377028525955
 s    1 1.00
            0.12194962                   1
 p    1 1.00
                   0.8                   1

43 0
 s    3 1.00
             13.010701   0.033485484812989
             1.9622572    0.23472187088125
            0.44453796    0.81377028525955
 s    1 1.00
            0.12194962                   1
 p    1 1.00
                   0.8                   1

[5d]
[7f]
[9g]

[MO]
 Sym= A
 Ene=               0
 Spin= Alpha
 Occup=    1.00000
   1    -9.9889784263993e-06
   2    -6.2658218336576e-07
   3    -0.00023018548951708
   4    -0.00037294352729138
   5    -0.00036695760308377
   6    -7.60296616053e-05
   7    -9.534285009139e-05
   8    6.045766600241e-05
   9    0.00022359033856727
  10    0.00032214401622918
  11    -0.00018048796025158
  12    8.6317686907291e-05
  13    -0.00011454288094997
  14    0.00026754456884931
  15    -0.066221997454107
  16     0.042954524094418
  17     0.083678144706933
  18      0.07464577789039
  19     0.039782669897962
  20    -0.047921522528168
  21     0.031117733040054
  22     0.060547230288958
  23     0.053748128351253
  24     0.028778984072002
  25    0.00034701140859365
  26    -0.00029166505546713
  27    -0.00011426629114752
  28    0.00019713109383705
  29    -3.8834346311507e-05
  30    0.00037660902766141
  31    -0.00021284161730091
  32    1.2700382610423e-05
  33    -8.6133451372933e-06
  34    0.00027539478801615
  35    0.00032081062295814
  36    0.00036353754685787
  37    6.966746232183e-05
  38    0.00011317112491884
  39    -4.9901291939415e-05
  40    -0.000210983637697
  41    -0.00036682947890174
  42    0.00015132122413054
  43    -4.9502897427844e-05
  44    0.00011927923794279
  45    -0.00010294493253761
  46    -0.068094151103574
  47     0.044366457238075
  48     0.086010190185253
  49     0.076911635106611
  50     0.041013137801659
  51    -0.049337237875915
  52     0.032181782369612
  53     0.062158133752176
  54      0.05542355472261
  55     0.029775785241386
  56    -0.00035431295777234
  57    0.0002992081803111
  58    0.00011503008407407
  59    -0.00020252751375972
  60    4.776807389579e-05
  61    -0.00039215379073094
  62    0.0002212774025536
  63    8.5553922088692e-05
  64    4.4441926076728e-05
  65    4.9395837989141e-05
  66    -7.6969275465675e-05
  67    0.00012573065624546
  68    9.2923226872348e-05
  69    -0.00012505799353738
  70    0.00018324426153118
  71    0.00014836265080325
  72    -0.00055584144523807
  73    0.00036969851162882
  74    0.00070834137213868
  75    0.00061661469393421
  76    0.00033739188181446
  77     0.042269245597617
  78      0.10651251954238
  79     0.093806266329703
  80      0.14714067081013
  81     0.059171111460819
  82       0.0494527930174
  83     -0.10418720436359
  84    -0.044186597347553
  85    -0.034990407489828
  86    -0.00016701867660042
  87    0.00026433693729523
  88    0.00028242097354929
  89    -1.2888911807143e-06
  90    0.00019218143574614
  91    -0.017561698375766
  92    -0.010693333158974
  93    -0.0028300271865079
  94    -0.0028194045981572
  95    -0.0030107929004963
  96     -0.01724208723508
  97    -0.013214984509912
  98    -0.0042038237302444
  99    -0.0022906731883813
 100    0.00058404721505839
 101    -0.011864234134618
 102    -0.013964949498788
 103    -0.0050330124292891
 104    -0.00020979446819275
 105    -0.0013713405217347
 106    -0.042124345198971
 107     -0.10635660920337
 108    -0.093340312628828
 109    -0.0031859968205474
 110     -0.10357797954531
 111       0.1303361511629
 112    6.3560262930906e-06
 113     0.075909324590668
 114      -0.0920623012848
 115    -3.8901484811688e-05
 116    0.00010289354230413
 117    0.00036299205078223
 118    0.00027071814811533
 119    0.00026200662103524
 120     0.010134607898447
 121     0.014014803491941
 122    0.0011842887715477
 123    0.0022510772110959
 124    -0.0048049192501775
 125     0.017982773923185
 126     0.011155927826594
 127    0.00024664724756755
 128    0.0044670551800912
 129    -0.0019132312904239
 130     0.017656648366017
 131     0.012083544017276
 132    -0.0017397511382856
 133    0.0019835809615521
 134    -0.0039227347050199
 135    -0.042413291214362
 136     -0.10710248576037
 137    -0.094318641755729
 138    0.0089212921373316
 139      0.10102288369929
 140     -0.13198685988113
 141    -0.0082145778058776
 142    -0.071439540924103
 143     0.094453743404086
 144    -0.00034038440842265
 145    0.00020887790390724
 146    0.00021275938704244
 147    1.1402787044125e-05
 148    8.8599269686537e-05
 149     0.017352865223496
 150     0.010686832901919
 151    -0.00071690546366934
 152    -0.00085335672726597
 153    0.0048812560120104
 154     0.012085831909803
 155     0.014204471915876
 156    0.0011798007506741
 157    -0.0037746005312679
 158    0.0034251897741722
 159     0.016977789140733
 160     0.013333300407904
 161    -0.001665164804847
 162    -0.0037451514414926
 163    0.0025539185468287
 164     0.042037389028614
 165      0.10584822876099
 166     0.093228390600256
 167     -0.14910636180831
 168    -0.053167518733794
 169    -0.050146247103216
 170      0.10790206837886
 171     0.035726462119209
 172     0.035416018775479
 173    -0.00034682298269539
 174    0.0001223880311927
 175    0.00013063704195598
 176    0.00031869612605693
 177    -1.2770211437014e-05
 178    -0.017171356298727
 179    -0.012165044537662
 180    0.0036547798406228
 181    0.00041960100346157
 182    0.0030071877228094
 183     -0.01808229413074
 184    -0.010945877184498
 185    0.0048662419427777
 186    0.00035074795774459
 187    -0.00059399435998366
 188     -0.01104400165877
 189    -0.013564253187134
 190     0.003876284327961
 191    0.0030990140973847
 192    0.0018553141611824
 193    -2.3737014328322e-05
 194    -0.00019700219845414
 195    -9.790420768716e-05
 196    -0.00021934260613164
 197    -0.00026262341698976
 198    0.00017151371556261
 199    0.0011959403101198
 200    0.0014946670709032
 201    -0.00095942907199716
 202    -0.00027869388201211
 203    0.00017990172601398
 204    0.00035893174267789
 205    0.00033208142599993
 206    0.00017298499226673
 207    -0.0015586766280096
 208    -0.00080629101814928
 209    0.0003509013597759
 210    -0.00048557785918444
 211    6.0570954374811e-05
 212    0.0012665879519882
 213    0.00083564384061633
 214    -0.00049562240669021
 215    0.00031282429343223
 216    -4.9444923457429e-05
 217    7.2647828931322e-05
 218    0.00017372264481434
 219    0.00035232325631848
 220    0.0004046558001717
 221    -0.00016280231629382
 222     0.043623864785651
 223      0.11017845213121
 224     0.096868771601244
 225     -0.15170514044891
 226    -0.061422776367171
 227    -0.050987808561257
 228      0.10723926253247
 229     0.046152926781338
 230     0.036095949798884
 231    -0.00018510056569756
 232    0.00026818249613833
 233    0.00031121420550033
 234    9.9630906266021e-06
 235    0.00018755074231333
 236    -0.011730693356996
 237    -0.014648569354342
 238    0.0052670786430704
 239     0.000291225047984
 240    0.0013209212027241
 241    -0.018108533637325
 242    -0.013565578434886
 243    0.0042278732929989
 244    0.0025039678055129
 245    -0.00059729841224917
 246    -0.017913248151652
 247    -0.011215907449632
 248    0.0029386097647557
 249    0.0027788075178345
 250    0.0031638584512061
 251    -0.043227127769967
 252     -0.10891166883993
 253    -0.095727531654032
 254    0.0033302843843823
 255       0.1061412452334
 256     -0.13397801549873
 257    -0.00013283531258466
 258    -0.077685420642794
 259     0.094735254943384
 260    -3.0596433163441e-05
 261    9.4585402240175e-05
 262    0.00037184320631821
 263    0.00025948112347338
 264    0.00025636476761828
 265     0.018636922771702
 266     0.011337251093497
 267    -8.755042137638e-05
 268    -0.0046375072529633
 269    0.0019487908776626
 270     0.010912318901065
 271     0.014170958368982
 272    -0.0013013386646921
 273    -0.0022986169286238
 274    0.0048372514054358
 275     0.017990839645249
 276      0.01233215783466
 277     0.001680919301521
 278    -0.0019258843865058
 279    0.0041511580987956
 280     0.043406649362077
 281      0.10956680514152
 282     0.096238764779282
 283      0.15403637340458
 284     0.054657312544531
 285     0.051616731361926
 286     -0.11146939887433
 287    -0.036485947058788
 288    -0.036311031795329
 289    -0.0003613711759606
 290    0.00012409150339722
 291    0.00015667097384527
 292    0.00032819098291136
 293    -9.9396378486786e-06
 294    -0.018535211097974
 295    -0.011395959631433
 296      -0.0049879700092
 297    -0.0004681140930848
 298    0.00066070089096362
 299    -0.017854391962405
 300    -0.012660515792213
 301    -0.0038032537926009
 302    -0.00031910700918685
 303    -0.0030585337202852
 304    -0.010997794325568
 305    -0.014221475685823
 306    -0.0040373917458835
 307    -0.0031643616353677
 308    -0.0020011522777938
 309    -0.043536300478076
 310     -0.10975275848464
 311    -0.096570827101758
 312    -0.0087613059434335
 313     -0.10377787794304
 314      0.13555813994397
 315    0.0079181979141396
 316     0.073359062603276
 317    -0.096985004645342
 318    -0.00034569994140027
 319    0.00020547811143898
 320    0.00020967258758462
 321    1.0511020527409e-05
 322    7.2429767036348e-05
 323      0.01803064498658
 324     0.010832341159633
 325    0.00086128606201099
 326    0.00086715340482561
 327    -0.0050208597997642
 328     0.017100952765482
 329     0.013720530131296
 330    0.0015701364186566
 331    0.0039554830543517
 332    -0.0026163054175521
 333      0.01295921717799
 334     0.014337778181892
 335    -0.0013067308871214
 336    0.0037689526774478
 337    -0.0035208963654781
 338    -4.8979555137053e-06
 339    0.00010576662226109
 340    -9.1839047935236e-06
 341    0.00025673047086203
 342     0.000202294539047
 343    -0.00023828735034353