[Molden Format]
made by pyscf v[2.1.1]
[Atoms] (AU)
Cr   1   24     1.56143912275337    -2.46507591990239    -1.82404491365355
Cr   2   24    -1.56139565905251     2.46513072196000     1.82399011159594
O   3   8     0.00002078698737     0.00002834589187    -0.00002645616574
N   4   7     5.12832174930954    -1.10581670549011    -0.60767356069801
H   5   1     6.65216855026694    -1.66292686427314    -1.66487895135981
H   6   1     5.63710405218294    -1.59213394419468     1.18765885421890
H   7   1     5.20084187906585     0.81566059741989    -0.65509245834172
N   8   7     1.71230729763415    -0.02251608677419    -4.99594076510539
H   9   1     0.29795878723855     1.27247165241550    -4.90823668593820
H   10   1     1.50271021425414    -0.85583806455427    -6.73026148236459
H   11   1     3.34039895052705     0.99863710888315    -5.18656310846864
N   12   7     1.41057094787259    -4.90763575303059     1.34785282752440
H   13   1     1.64193389675534    -6.79355407945465     0.97314659318890
H   14   1    -0.29048681014202    -4.81040367474334     2.24006056107205
H   15   1     2.72468082571676    -4.56691435331926     2.71738081369757
N   16   7    -2.00544350380280    -3.82433513431467    -3.04041437688297
H   17   1    -2.87205678671934    -5.05516478184926    -1.83221042023780
H   18   1    -2.03637832046193    -4.76397121413665    -4.73247136936628
H   19   1    -3.24475802163669    -2.37551046050250    -3.28123540501917
N   20   7     3.37923471211299    -5.33493873459111    -3.94755661599306
H   21   1     4.17102617885350    -4.76109883042731    -5.61685374703210
H   22   1     2.26176595533881    -6.82326057413281    -4.47610923358166
H   23   1     4.85383336053810    -6.19899521806112    -3.03922195969837
N   24   7    -5.12827828560868     1.10587339727385     0.60762064836653
H   25   1    -5.15408816501799    -0.81544705836782     0.54662784797006
H   26   1    -5.69743166898356     1.68113626520945    -1.14337690194197
H   27   1    -6.63528195761783     1.56841410187914     1.73267665553083
N   28   7    -1.71226383393328     0.02257088883181     4.99588785277390
H   29   1    -1.62991523860311     0.86667375415253     6.73575491620870
H   30   1    -0.22416876152653    -1.19157625647512     4.98456461383551
H   31   1    -3.28782110056328    -1.08746368536834     5.11339858210385
N   32   7     2.00548696750367     3.82438993637228     3.04035957482536
H   33   1     2.05186651577887     4.68410571893416     4.77402266739321
H   34   1     2.83712330958063     5.12208376337235     1.87805706574587
H   35   1     3.26582090902109     2.38241174030942     3.19051154350492
N   36   7    -1.41052748417173     4.90769055508820    -1.34790762958202
H   37   1    -1.75003190025884     6.78104976168840    -0.99229329828299
H   38   1    -2.65834387984003     4.49309409198925    -2.75785496783350
H   39   1     0.32278033988471     4.89894112313146    -2.18344058692784
N   40   7    -3.37919124841212     5.33499353664873     3.94750181393545
H   41   1    -2.26357064378777     6.83195331430581     4.45515784003860
H   42   1    -4.15358022727151     4.76963661305810     5.62761006813313
H   43   1    -4.86681766873998     6.18449345978121     3.04686590187224
[GTO]
1 0
 s    6 1.00
          51528.086349  0.0017695545768669
          7737.2103487   0.013556436258096
           1760.374847   0.067162645785071
          496.87706544    0.23295905918518
          161.46520598    0.47040576982722
          55.466352268    0.35733072606876
 s    3 1.00
          107.54732999   -0.10605255446629
          12.408671897    0.62543981484169
          5.0423628826    0.44878820793655
 s    3 1.00
          8.5461640165   -0.21819012081133
          1.3900441221    0.70422525667731
         0.56066602876    0.42488555412558
 s    1 1.00
        0.071483705972                   1
 s    1 1.00
        0.028250687604                   1
 p    5 1.00
          640.48536096  0.0093555063746755
          150.69711194   0.068993338492216
          47.503755296     0.2634118959318
          16.934120165    0.51034501651775
           6.240968059    0.33195512953954
 p    3 1.00
          3.0885463206    0.32917682676976
          1.1791047769    0.55491385190365
         0.43369774432    0.23818412855984
 p    1 1.00
              0.120675                   1
 d    4 1.00
          27.559479426   0.036950140313562
          7.4687020327    0.18821519783039
          2.4345903574    0.44641244239929
         0.78244754808     0.5681617303244
 d    1 1.00
         0.21995774311                   1
 f    1 1.00
                 1.147                   1

2 0
 s    6 1.00
          51528.086349  0.0017695545768669
          7737.2103487   0.013556436258096
           1760.374847   0.067162645785071
          496.87706544    0.23295905918518
          161.46520598    0.47040576982722
          55.466352268    0.35733072606876
 s    3 1.00
          107.54732999   -0.10605255446629
          12.408671897    0.62543981484169
          5.0423628826    0.44878820793655
 s    3 1.00
          8.5461640165   -0.21819012081133
          1.3900441221    0.70422525667731
         0.56066602876    0.42488555412558
 s    1 1.00
        0.071483705972                   1
 s    1 1.00
        0.028250687604                   1
 p    5 1.00
          640.48536096  0.0093555063746755
          150.69711194   0.068993338492216
          47.503755296     0.2634118959318
          16.934120165    0.51034501651775
           6.240968059    0.33195512953954
 p    3 1.00
          3.0885463206    0.32917682676976
          1.1791047769    0.55491385190365
         0.43369774432    0.23818412855984
 p    1 1.00
              0.120675                   1
 d    4 1.00
          27.559479426   0.036950140313562
          7.4687020327    0.18821519783039
          2.4345903574    0.44641244239929
         0.78244754808     0.5681617303244
 d    1 1.00
         0.21995774311                   1
 f    1 1.00
                 1.147                   1

3 0
 s    5 1.00
          2266.1767785  -0.0053893503921743
          340.87010191   -0.04023472138896
          77.363135167   -0.18008184205526
           21.47964494   -0.46828857657651
          6.6589433124   -0.44692617160187
 s    1 1.00
         0.80975975668                   1
 s    1 1.00
         0.25530772234                   1
 p    3 1.00
          17.721504317   0.062630248763161
           3.863550544    0.33331138482352
          1.0480920883    0.74148638308122
 p    1 1.00
         0.27641544411                   1
 d    1 1.00
                   1.2                   1

4 0
 s    5 1.00
          1712.8415853  -0.0054477995804909
          257.64812677  -0.040627174632423
          58.458245853   -0.18111962250584
          16.198367905   -0.46843975563173
          5.0052600809   -0.44616846289231
 s    1 1.00
         0.58731856571                   1
 s    1 1.00
         0.18764592253                   1
 p    3 1.00
          13.571470233  -0.058848116969522
          2.9257372874   -0.32024624762471
         0.79927750754   -0.75328226520436
 p    1 1.00
         0.21954348034                   1
 d    1 1.00
                     1                   1

5 0
 s    3 1.00
             13.010701   0.033485484812989
             1.9622572    0.23472187088125
            0.44453796    0.81377028525955
 s    1 1.00
            0.12194962                   1
 p    1 1.00
                   0.8                   1

6 0
 s    3 1.00
             13.010701   0.033485484812989
             1.9622572    0.23472187088125
            0.44453796    0.81377028525955
 s    1 1.00
            0.12194962                   1
 p    1 1.00
                   0.8                   1

7 0
 s    3 1.00
             13.010701   0.033485484812989
             1.9622572    0.23472187088125
            0.44453796    0.81377028525955
 s    1 1.00
            0.12194962                   1
 p    1 1.00
                   0.8                   1

8 0
 s    5 1.00
          1712.8415853  -0.0054477995804909
          257.64812677  -0.040627174632423
          58.458245853   -0.18111962250584
          16.198367905   -0.46843975563173
          5.0052600809   -0.44616846289231
 s    1 1.00
         0.58731856571                   1
 s    1 1.00
         0.18764592253                   1
 p    3 1.00
          13.571470233  -0.058848116969522
          2.9257372874   -0.32024624762471
         0.79927750754   -0.75328226520436
 p    1 1.00
         0.21954348034                   1
 d    1 1.00
                     1                   1

9 0
 s    3 1.00
             13.010701   0.033485484812989
             1.9622572    0.23472187088125
            0.44453796    0.81377028525955
 s    1 1.00
            0.12194962                   1
 p    1 1.00
                   0.8                   1

10 0
 s    3 1.00
             13.010701   0.033485484812989
             1.9622572    0.23472187088125
            0.44453796    0.81377028525955
 s    1 1.00
            0.12194962                   1
 p    1 1.00
                   0.8                   1

11 0
 s    3 1.00
             13.010701   0.033485484812989
             1.9622572    0.23472187088125
            0.44453796    0.81377028525955
 s    1 1.00
            0.12194962                   1
 p    1 1.00
                   0.8                   1

12 0
 s    5 1.00
          1712.8415853  -0.0054477995804909
          257.64812677  -0.040627174632423
          58.458245853   -0.18111962250584
          16.198367905   -0.46843975563173
          5.0052600809   -0.44616846289231
 s    1 1.00
         0.58731856571                   1
 s    1 1.00
         0.18764592253                   1
 p    3 1.00
          13.571470233  -0.058848116969522
          2.9257372874   -0.32024624762471
         0.79927750754   -0.75328226520436
 p    1 1.00
         0.21954348034                   1
 d    1 1.00
                     1                   1

13 0
 s    3 1.00
             13.010701   0.033485484812989
             1.9622572    0.23472187088125
            0.44453796    0.81377028525955
 s    1 1.00
            0.12194962                   1
 p    1 1.00
                   0.8                   1

14 0
 s    3 1.00
             13.010701   0.033485484812989
             1.9622572    0.23472187088125
            0.44453796    0.81377028525955
 s    1 1.00
            0.12194962                   1
 p    1 1.00
                   0.8                   1

15 0
 s    3 1.00
             13.010701   0.033485484812989
             1.9622572    0.23472187088125
            0.44453796    0.81377028525955
 s    1 1.00
            0.12194962                   1
 p    1 1.00
                   0.8                   1

16 0
 s    5 1.00
          1712.8415853  -0.0054477995804909
          257.64812677  -0.040627174632423
          58.458245853   -0.18111962250584
          16.198367905   -0.46843975563173
          5.0052600809   -0.44616846289231
 s    1 1.00
         0.58731856571                   1
 s    1 1.00
         0.18764592253                   1
 p    3 1.00
          13.571470233  -0.058848116969522
          2.9257372874   -0.32024624762471
         0.79927750754   -0.75328226520436
 p    1 1.00
         0.21954348034                   1
 d    1 1.00
                     1                   1

17 0
 s    3 1.00
             13.010701   0.033485484812989
             1.9622572    0.23472187088125
            0.44453796    0.81377028525955
 s    1 1.00
            0.12194962                   1
 p    1 1.00
                   0.8                   1

18 0
 s    3 1.00
             13.010701   0.033485484812989
             1.9622572    0.23472187088125
            0.44453796    0.81377028525955
 s    1 1.00
            0.12194962                   1
 p    1 1.00
                   0.8                   1

19 0
 s    3 1.00
             13.010701   0.033485484812989
             1.9622572    0.23472187088125
            0.44453796    0.81377028525955
 s    1 1.00
            0.12194962                   1
 p    1 1.00
                   0.8                   1

20 0
 s    5 1.00
          1712.8415853  -0.0054477995804909
          257.64812677  -0.040627174632423
          58.458245853   -0.18111962250584
          16.198367905   -0.46843975563173
          5.0052600809   -0.44616846289231
 s    1 1.00
         0.58731856571                   1
 s    1 1.00
         0.18764592253                   1
 p    3 1.00
          13.571470233  -0.058848116969522
          2.9257372874   -0.32024624762471
         0.79927750754   -0.75328226520436
 p    1 1.00
         0.21954348034                   1
 d    1 1.00
                     1                   1

21 0
 s    3 1.00
             13.010701   0.033485484812989
             1.9622572    0.23472187088125
            0.44453796    0.81377028525955
 s    1 1.00
            0.12194962                   1
 p    1 1.00
                   0.8                   1

22 0
 s    3 1.00
             13.010701   0.033485484812989
             1.9622572    0.23472187088125
            0.44453796    0.81377028525955
 s    1 1.00
            0.12194962                   1
 p    1 1.00
                   0.8                   1

23 0
 s    3 1.00
             13.010701   0.033485484812989
             1.9622572    0.23472187088125
            0.44453796    0.81377028525955
 s    1 1.00
            0.12194962                   1
 p    1 1.00
                   0.8                   1

24 0
 s    5 1.00
          1712.8415853  -0.0054477995804909
          257.64812677  -0.040627174632423
          58.458245853   -0.18111962250584
          16.198367905   -0.46843975563173
          5.0052600809   -0.44616846289231
 s    1 1.00
         0.58731856571                   1
 s    1 1.00
         0.18764592253                   1
 p    3 1.00
          13.571470233  -0.058848116969522
          2.9257372874   -0.32024624762471
         0.79927750754   -0.75328226520436
 p    1 1.00
         0.21954348034                   1
 d    1 1.00
                     1                   1

25 0
 s    3 1.00
             13.010701   0.033485484812989
             1.9622572    0.23472187088125
            0.44453796    0.81377028525955
 s    1 1.00
            0.12194962                   1
 p    1 1.00
                   0.8                   1

26 0
 s    3 1.00
             13.010701   0.033485484812989
             1.9622572    0.23472187088125
            0.44453796    0.81377028525955
 s    1 1.00
            0.12194962                   1
 p    1 1.00
                   0.8                   1

27 0
 s    3 1.00
             13.010701   0.033485484812989
             1.9622572    0.23472187088125
            0.44453796    0.81377028525955
 s    1 1.00
            0.12194962                   1
 p    1 1.00
                   0.8                   1

28 0
 s    5 1.00
          1712.8415853  -0.0054477995804909
          257.64812677  -0.040627174632423
          58.458245853   -0.18111962250584
          16.198367905   -0.46843975563173
          5.0052600809   -0.44616846289231
 s    1 1.00
         0.58731856571                   1
 s    1 1.00
         0.18764592253                   1
 p    3 1.00
          13.571470233  -0.058848116969522
          2.9257372874   -0.32024624762471
         0.79927750754   -0.75328226520436
 p    1 1.00
         0.21954348034                   1
 d    1 1.00
                     1                   1

29 0
 s    3 1.00
             13.010701   0.033485484812989
             1.9622572    0.23472187088125
            0.44453796    0.81377028525955
 s    1 1.00
            0.12194962                   1
 p    1 1.00
                   0.8                   1

30 0
 s    3 1.00
             13.010701   0.033485484812989
             1.9622572    0.23472187088125
            0.44453796    0.81377028525955
 s    1 1.00
            0.12194962                   1
 p    1 1.00
                   0.8                   1

31 0
 s    3 1.00
             13.010701   0.033485484812989
             1.9622572    0.23472187088125
            0.44453796    0.81377028525955
 s    1 1.00
            0.12194962                   1
 p    1 1.00
                   0.8                   1

32 0
 s    5 1.00
          1712.8415853  -0.0054477995804909
          257.64812677  -0.040627174632423
          58.458245853   -0.18111962250584
          16.198367905   -0.46843975563173
          5.0052600809   -0.44616846289231
 s    1 1.00
         0.58731856571                   1
 s    1 1.00
         0.18764592253                   1
 p    3 1.00
          13.571470233  -0.058848116969522
          2.9257372874   -0.32024624762471
         0.79927750754   -0.75328226520436
 p    1 1.00
         0.21954348034                   1
 d    1 1.00
                     1                   1

33 0
 s    3 1.00
             13.010701   0.033485484812989
             1.9622572    0.23472187088125
            0.44453796    0.81377028525955
 s    1 1.00
            0.12194962                   1
 p    1 1.00
                   0.8                   1

34 0
 s    3 1.00
             13.010701   0.033485484812989
             1.9622572    0.23472187088125
            0.44453796    0.81377028525955
 s    1 1.00
            0.12194962                   1
 p    1 1.00
                   0.8                   1

35 0
 s    3 1.00
             13.010701   0.033485484812989
             1.9622572    0.23472187088125
            0.44453796    0.81377028525955
 s    1 1.00
            0.12194962                   1
 p    1 1.00
                   0.8                   1

36 0
 s    5 1.00
          1712.8415853  -0.0054477995804909
          257.64812677  -0.040627174632423
          58.458245853   -0.18111962250584
          16.198367905   -0.46843975563173
          5.0052600809   -0.44616846289231
 s    1 1.00
         0.58731856571                   1
 s    1 1.00
         0.18764592253                   1
 p    3 1.00
          13.571470233  -0.058848116969522
          2.9257372874   -0.32024624762471
         0.79927750754   -0.75328226520436
 p    1 1.00
         0.21954348034                   1
 d    1 1.00
                     1                   1

37 0
 s    3 1.00
             13.010701   0.033485484812989
             1.9622572    0.23472187088125
            0.44453796    0.81377028525955
 s    1 1.00
            0.12194962                   1
 p    1 1.00
                   0.8                   1

38 0
 s    3 1.00
             13.010701   0.033485484812989
             1.9622572    0.23472187088125
            0.44453796    0.81377028525955
 s    1 1.00
            0.12194962                   1
 p    1 1.00
                   0.8                   1

39 0
 s    3 1.00
             13.010701   0.033485484812989
             1.9622572    0.23472187088125
            0.44453796    0.81377028525955
 s    1 1.00
            0.12194962                   1
 p    1 1.00
                   0.8                   1

40 0
 s    5 1.00
          1712.8415853  -0.0054477995804909
          257.64812677  -0.040627174632423
          58.458245853   -0.18111962250584
          16.198367905   -0.46843975563173
          5.0052600809   -0.44616846289231
 s    1 1.00
         0.58731856571                   1
 s    1 1.00
         0.18764592253                   1
 p    3 1.00
          13.571470233  -0.058848116969522
          2.9257372874   -0.32024624762471
         0.79927750754   -0.75328226520436
 p    1 1.00
         0.21954348034                   1
 d    1 1.00
                     1                   1

41 0
 s    3 1.00
             13.010701   0.033485484812989
             1.9622572    0.23472187088125
            0.44453796    0.81377028525955
 s    1 1.00
            0.12194962                   1
 p    1 1.00
                   0.8                   1

42 0
 s    3 1.00
             13.010701   0.033485484812989
             1.9622572    0.23472187088125
            0.44453796    0.81377028525955
 s    1 1.00
            0.12194962                   1
 p    1 1.00
                   0.8                   1

43 0
 s    3 1.00
             13.010701   0.033485484812989
             1.9622572    0.23472187088125
            0.44453796    0.81377028525955
 s    1 1.00
            0.12194962                   1
 p    1 1.00
                   0.8                   1

[5d]
[7f]
[9g]

[MO]
 Sym= A
 Ene=               0
 Spin= Alpha
 Occup=    1.00000
   1    -5.104432643606e-06
   2    1.2455177446326e-05
   3    -8.8382044098388e-05
   4    -0.00028365762661899
   5    0.0016436946857875
   6    0.0047774929409778
   7    0.0044030068283347
   8    -0.0018312028666182
   9     -0.01678267407392
  10    -0.015498818440438
  11    0.0064283564937213
  12     0.060252885085185
  13     0.055517035318811
  14    -0.023211985055987
  15    -0.023969012800693
  16     0.047828250413462
  17     0.014444843513029
  18    -0.075470301908947
  19      0.02037532551775
  20    -0.014826734749112
  21     0.029248016807956
  22    0.0090136029837741
  23    -0.045689087496203
  24     0.012453478500414
  25    -0.00026379382423945
  26    0.0016698862843765
  27    -0.0015165746332226
  28    -0.0043197918346311
  29    0.0019820500826174
  30    0.0012079895175163
  31    -0.0044511796599881
  32    6.4401173823039e-07
  33    2.6632218638008e-06
  34    1.9467736810897e-05
  35    -2.1768355049357e-05
  36    -0.00082542601475973
  37    0.0047894738589698
  38    0.0043846352264028
  39    -0.0018452796537881
  40    -0.016849987160063
  41    -0.015402224683785
  42    0.0064922131251575
  43     0.060345742775519
  44     0.055650065735355
  45    -0.022839213632206
  46     0.024114712016653
  47    -0.047910932300533
  48     -0.01431379388423
  49     0.075430769874934
  50    -0.020239610383667
  51     0.014784967421995
  52    -0.029175740667439
  53    -0.0090659035187127
  54     0.045679038811867
  55    -0.012732877260843
  56    -0.00026586401457711
  57    0.0016694385487744
  58    -0.0015230548670326
  59    -0.0043184961102085
  60     0.001983540977546
  61    0.0012089566101609
  62    -0.0044491097806694
  63    -0.00016904795547147
  64    3.5875698327922e-05
  65    8.0440032612507e-05
  66        0.399845646808
  67      0.36700335981408
  68     -0.15406676787959
  69      0.34408578300257
  70      0.31613369040404
  71     -0.13264453953858
  72    -1.025184109626e-05
  73    5.2433174427982e-06
  74    -7.1945411139955e-06
  75    4.0300111894895e-07
  76    -1.9974828563249e-05
  77    -0.0052488826241981
  78    -0.0083017534304423
  79     -0.04625464295489
  80    -0.0091030009774667
  81    0.0043889516726277
  82    -0.0016416795371074
  83     0.012431655554628
  84    -0.0050271507308185
  85     0.018061208518966
  86    -0.00010712228966212
  87    -0.00043244442789285
  88    -5.8681463692172e-05
  89    0.0018608579927045
  90    -0.0014411358299947
  91     0.013228163210297
  92    0.0043331560032034
  93    -0.00017095336623755
  94    1.5677708090931e-05
  95    0.0004044189909827
  96    -0.002128652194752
  97    -0.0035225870105292
  98    0.0010658559767739
  99    -0.00078037142895558
 100    0.00035346043051102
 101    -0.0055469082860459
 102     0.027799449784665
 103    -0.0036346249085947
 104    -0.00071963604263733
 105    -0.00046605070343141
 106    -0.0042185519510435
 107    -0.0080851957152727
 108    -0.027292079425734
 109    -0.0018339503671029
 110    -0.00010419695964228
 111    0.0073325696307936
 112    -0.002489956112151
 113     0.012961918258897
 114    -0.0085069981163512
 115    0.0015564370024052
 116    -0.00036695668827116
 117    0.00096942880713083
 118    -1.2869101728611e-05
 119    3.3815709779596e-05
 120    -0.0063581658083454
 121     0.003992783554165
 122    -0.00056725961084643
 123    0.00043047528074143
 124    0.0024693748330575
 125     0.010514417967411
 126    0.0099740635863294
 127    0.00083620453860115
 128    -0.00013939914992954
 129    0.00040634203444542
 130    -0.0026155437524564
 131    -0.0037231330745517
 132    0.00048286223992905
 133    -0.00021176752688518
 134    -0.00094585682787931
 135    0.0043847244542082
 136    0.0066714465510612
 137     0.040614277842318
 138      0.00574902201409
 139    -0.0062851263464918
 140    0.0028393967224869
 141    -0.015882258964055
 142    0.0020914817733124
 143    -0.014046834841726
 144    0.00065637285483782
 145    -0.0012160100258339
 146    0.00021079476641645
 147    0.0012291649478391
 148    0.00098089177677037
 149    -0.010899444898716
 150    -0.002973699816153
 151    -4.0275707788751e-05
 152    -0.00025894507329736
 153    -0.00024213557808248
 154    0.0042774309670381
 155    -0.027749696644206
 156    -8.2384920741176e-05
 157    -0.0026676071990534
 158    0.0023080848545174
 159    0.0013132928669735
 160    0.0037257626883383
 161    -0.00091740223495013
 162    0.00082183318637604
 163    -0.00044509909000755
 164    0.0050332289149539
 165    0.0095879425953926
 166     0.033352439644993
 167    -0.0040044727827874
 168    -0.0058792617910419
 169    -0.0052177037078424
 170     0.018971266306983
 171    -6.9554719664881e-06
 172    0.00064417894153624
 173    -0.00092341586187306
 174    -0.00037857157387686
 175    -0.0017381214871538
 176    0.00084838186830685
 177    -0.00046134386025565
 178    0.0038947467684979
 179    0.0028302791932823
 180    6.8709581591513e-05
 181    0.00094844248435755
 182    0.00033768873046386
 183    -0.013071363716156
 184    -0.011697801327356
 185    -0.0003189519941787
 186    0.00037842695675871
 187    -0.00079399851480017
 188    0.0074844748055849
 189    -0.0046867128479379
 190    -0.00076756820320097
 191    -0.0019006750863338
 192    -0.0013331432913809
 193    1.0267305301743e-05
 194    2.1481256626523e-05
 195    0.00022097799151794
 196    0.0018601462045891
 197    0.0016751759597905
 198    -0.0007021613017604
 199    0.00021183233764329
 200    0.00011848704284047
 201    -0.00014133069186627
 202    0.00014084216669589
 203    -0.00015806112884408
 204    -0.00011737151666147
 205    0.00015795112754124
 206    -0.00011287566739861
 207    -0.0012082552321561
 208    -0.0030647525435371
 209    0.00019538988585224
 210    -0.00040640331197286
 211    -0.00051473952723366
 212    0.0013928019623995
 213    0.0031891645348426
 214    -0.00019910507981358
 215    0.00057401047644201
 216    0.00048718988761827
 217    -0.00019901958069247
 218    -0.00074969247021188
 219    -9.7267055719652e-05
 220    -0.00026840987795578
 221    6.9695678054341e-05
 222    0.0052953561980414
 223    0.0081471044486182
 224     0.047899675057679
 225    -0.009223811007999
 226    0.0046904523291389
 227    -0.0013773881936842
 228     0.013305903273109
 229    -0.0066146686758154
 230     0.016809498045932
 231    0.00010489209885162
 232    0.00041230554696044
 233    0.00018673901915614
 234    -0.0018752159669243
 235    0.0013741789083838
 236    0.0051218615549622
 237    -0.029733545087268
 238    -0.0040123579262347
 239    -0.00071100501005482
 240    -0.00053246524002983
 241    0.0012249026578307
 242    0.0029616195587486
 243    0.0011498642759062
 244    -0.00079864865633259
 245    0.00019569832586339
 246     -0.01273569767554
 247    -0.0035173336366449
 248    -7.8897707851791e-05
 249    -7.0816145084963e-05
 250    0.00045616669997491
 251    0.0041841142881668
 252    0.0082414503039648
 253     0.026087184261811
 254    -0.0014589075072771
 255    -0.00034433526444404
 256    0.0072176128562223
 257    -0.0043116929529463
 258     0.013785413364186
 259    -0.007969946838864
 260    -0.0015556721329545
 261    0.00041173259635523
 262    -0.0010007725982109
 263    3.3988797688263e-05
 264    7.9943944477401e-05
 265    -0.010782172514557
 266    -0.010558534754863
 267    0.00077761929824641
 268    -7.3272833775193e-05
 269    0.00047766654634547
 270    0.0066204121969342
 271    -0.0016466496184816
 272    -0.00070972349337293
 273    0.00045934076909275
 274    0.0020235382442769
 275    0.0032783966634643
 276    0.0029322607615843
 277    0.0004937104655851
 278    -0.00019774397886432
 279    -0.00077166700852964
 280    -0.005060511861771
 281    -0.0094929799090183
 282    -0.034204012410243
 283    -0.0038528278175426
 284    -0.0062052746403066
 285    -0.0052167783668369
 286     0.018466023146574
 287    0.0014036120316024
 288    0.00047376518253072
 289    0.00096513732371648
 290    0.00037727575686287
 291    0.0016753454559681
 292    -0.00083096425533136
 293    0.00052134115446708
 294     0.012881070747701
 295     0.011163849220201
 296    -0.00034609979146707
 297    0.00046741838397584
 298    -0.00076940676027569
 299    -0.0034043470242594
 300    -0.0032187399232166
 301    0.00012058581883579
 302    0.0010213692582638
 303    0.00047805771087932
 304    -0.0073800616709601
 305    0.0064206257572112
 306    -0.00092847381898751
 307    -0.0020048605116475
 308    -0.001632507428899
 309    -0.0043395678504531
 310    -0.0068352771327816
 311    -0.038730312031857
 312    0.0055962174424107
 313    -0.006061444353016
 314    0.0030908104788736
 315    -0.014947887250546
 316    0.00081236324015821
 317    -0.015378996696307
 318    -0.0006187197233491
 319    0.0011696567157118
 320    -0.00013527697168026
 321    -0.0012602556360284
 322    -0.0010657843815384
 323     0.011260182640027
 324     0.003800056364742
 325    4.9335274706153e-05
 326    -0.00030336022761636
 327    -0.00018684325313256
 328    -0.0020356202977921
 329    -0.0047779925699408
 330    -0.00096686912454743
 331    0.00069725992162903
 332    -0.00055032984270116
 333    -0.0046825345125683
 334     0.025723482482746
 335    -0.00013955176389536
 336    -0.0024127624157353
 337    0.0021116661143452
 338    1.4442616018613e-05
 339    8.002524709186e-05
 340    -0.00016781871517746
 341    0.0018170915069112