[Molden Format]
made by pyscf v[2.1.1]
[Atoms] (AU)
Cr   1   24     1.56143912275337    -2.46507591990239    -1.82404491365355
Cr   2   24    -1.56139565905251     2.46513072196000     1.82399011159594
O   3   8     0.00002078698737     0.00002834589187    -0.00002645616574
N   4   7     5.12832174930954    -1.10581670549011    -0.60767356069801
H   5   1     6.65216855026694    -1.66292686427314    -1.66487895135981
H   6   1     5.63710405218294    -1.59213394419468     1.18765885421890
H   7   1     5.20084187906585     0.81566059741989    -0.65509245834172
N   8   7     1.71230729763415    -0.02251608677419    -4.99594076510539
H   9   1     0.29795878723855     1.27247165241550    -4.90823668593820
H   10   1     1.50271021425414    -0.85583806455427    -6.73026148236459
H   11   1     3.34039895052705     0.99863710888315    -5.18656310846864
N   12   7     1.41057094787259    -4.90763575303059     1.34785282752440
H   13   1     1.64193389675534    -6.79355407945465     0.97314659318890
H   14   1    -0.29048681014202    -4.81040367474334     2.24006056107205
H   15   1     2.72468082571676    -4.56691435331926     2.71738081369757
N   16   7    -2.00544350380280    -3.82433513431467    -3.04041437688297
H   17   1    -2.87205678671934    -5.05516478184926    -1.83221042023780
H   18   1    -2.03637832046193    -4.76397121413665    -4.73247136936628
H   19   1    -3.24475802163669    -2.37551046050250    -3.28123540501917
N   20   7     3.37923471211299    -5.33493873459111    -3.94755661599306
H   21   1     4.17102617885350    -4.76109883042731    -5.61685374703210
H   22   1     2.26176595533881    -6.82326057413281    -4.47610923358166
H   23   1     4.85383336053810    -6.19899521806112    -3.03922195969837
N   24   7    -5.12827828560868     1.10587339727385     0.60762064836653
H   25   1    -5.15408816501799    -0.81544705836782     0.54662784797006
H   26   1    -5.69743166898356     1.68113626520945    -1.14337690194197
H   27   1    -6.63528195761783     1.56841410187914     1.73267665553083
N   28   7    -1.71226383393328     0.02257088883181     4.99588785277390
H   29   1    -1.62991523860311     0.86667375415253     6.73575491620870
H   30   1    -0.22416876152653    -1.19157625647512     4.98456461383551
H   31   1    -3.28782110056328    -1.08746368536834     5.11339858210385
N   32   7     2.00548696750367     3.82438993637228     3.04035957482536
H   33   1     2.05186651577887     4.68410571893416     4.77402266739321
H   34   1     2.83712330958063     5.12208376337235     1.87805706574587
H   35   1     3.26582090902109     2.38241174030942     3.19051154350492
N   36   7    -1.41052748417173     4.90769055508820    -1.34790762958202
H   37   1    -1.75003190025884     6.78104976168840    -0.99229329828299
H   38   1    -2.65834387984003     4.49309409198925    -2.75785496783350
H   39   1     0.32278033988471     4.89894112313146    -2.18344058692784
N   40   7    -3.37919124841212     5.33499353664873     3.94750181393545
H   41   1    -2.26357064378777     6.83195331430581     4.45515784003860
H   42   1    -4.15358022727151     4.76963661305810     5.62761006813313
H   43   1    -4.86681766873998     6.18449345978121     3.04686590187224
[GTO]
1 0
 s    6 1.00
          51528.086349  0.0017695545768669
          7737.2103487   0.013556436258096
           1760.374847   0.067162645785071
          496.87706544    0.23295905918518
          161.46520598    0.47040576982722
          55.466352268    0.35733072606876
 s    3 1.00
          107.54732999   -0.10605255446629
          12.408671897    0.62543981484169
          5.0423628826    0.44878820793655
 s    3 1.00
          8.5461640165   -0.21819012081133
          1.3900441221    0.70422525667731
         0.56066602876    0.42488555412558
 s    1 1.00
        0.071483705972                   1
 s    1 1.00
        0.028250687604                   1
 p    5 1.00
          640.48536096  0.0093555063746755
          150.69711194   0.068993338492216
          47.503755296     0.2634118959318
          16.934120165    0.51034501651775
           6.240968059    0.33195512953954
 p    3 1.00
          3.0885463206    0.32917682676976
          1.1791047769    0.55491385190365
         0.43369774432    0.23818412855984
 p    1 1.00
              0.120675                   1
 d    4 1.00
          27.559479426   0.036950140313562
          7.4687020327    0.18821519783039
          2.4345903574    0.44641244239929
         0.78244754808     0.5681617303244
 d    1 1.00
         0.21995774311                   1
 f    1 1.00
                 1.147                   1

2 0
 s    6 1.00
          51528.086349  0.0017695545768669
          7737.2103487   0.013556436258096
           1760.374847   0.067162645785071
          496.87706544    0.23295905918518
          161.46520598    0.47040576982722
          55.466352268    0.35733072606876
 s    3 1.00
          107.54732999   -0.10605255446629
          12.408671897    0.62543981484169
          5.0423628826    0.44878820793655
 s    3 1.00
          8.5461640165   -0.21819012081133
          1.3900441221    0.70422525667731
         0.56066602876    0.42488555412558
 s    1 1.00
        0.071483705972                   1
 s    1 1.00
        0.028250687604                   1
 p    5 1.00
          640.48536096  0.0093555063746755
          150.69711194   0.068993338492216
          47.503755296     0.2634118959318
          16.934120165    0.51034501651775
           6.240968059    0.33195512953954
 p    3 1.00
          3.0885463206    0.32917682676976
          1.1791047769    0.55491385190365
         0.43369774432    0.23818412855984
 p    1 1.00
              0.120675                   1
 d    4 1.00
          27.559479426   0.036950140313562
          7.4687020327    0.18821519783039
          2.4345903574    0.44641244239929
         0.78244754808     0.5681617303244
 d    1 1.00
         0.21995774311                   1
 f    1 1.00
                 1.147                   1

3 0
 s    5 1.00
          2266.1767785  -0.0053893503921743
          340.87010191   -0.04023472138896
          77.363135167   -0.18008184205526
           21.47964494   -0.46828857657651
          6.6589433124   -0.44692617160187
 s    1 1.00
         0.80975975668                   1
 s    1 1.00
         0.25530772234                   1
 p    3 1.00
          17.721504317   0.062630248763161
           3.863550544    0.33331138482352
          1.0480920883    0.74148638308122
 p    1 1.00
         0.27641544411                   1
 d    1 1.00
                   1.2                   1

4 0
 s    5 1.00
          1712.8415853  -0.0054477995804909
          257.64812677  -0.040627174632423
          58.458245853   -0.18111962250584
          16.198367905   -0.46843975563173
          5.0052600809   -0.44616846289231
 s    1 1.00
         0.58731856571                   1
 s    1 1.00
         0.18764592253                   1
 p    3 1.00
          13.571470233  -0.058848116969522
          2.9257372874   -0.32024624762471
         0.79927750754   -0.75328226520436
 p    1 1.00
         0.21954348034                   1
 d    1 1.00
                     1                   1

5 0
 s    3 1.00
             13.010701   0.033485484812989
             1.9622572    0.23472187088125
            0.44453796    0.81377028525955
 s    1 1.00
            0.12194962                   1
 p    1 1.00
                   0.8                   1

6 0
 s    3 1.00
             13.010701   0.033485484812989
             1.9622572    0.23472187088125
            0.44453796    0.81377028525955
 s    1 1.00
            0.12194962                   1
 p    1 1.00
                   0.8                   1

7 0
 s    3 1.00
             13.010701   0.033485484812989
             1.9622572    0.23472187088125
            0.44453796    0.81377028525955
 s    1 1.00
            0.12194962                   1
 p    1 1.00
                   0.8                   1

8 0
 s    5 1.00
          1712.8415853  -0.0054477995804909
          257.64812677  -0.040627174632423
          58.458245853   -0.18111962250584
          16.198367905   -0.46843975563173
          5.0052600809   -0.44616846289231
 s    1 1.00
         0.58731856571                   1
 s    1 1.00
         0.18764592253                   1
 p    3 1.00
          13.571470233  -0.058848116969522
          2.9257372874   -0.32024624762471
         0.79927750754   -0.75328226520436
 p    1 1.00
         0.21954348034                   1
 d    1 1.00
                     1                   1

9 0
 s    3 1.00
             13.010701   0.033485484812989
             1.9622572    0.23472187088125
            0.44453796    0.81377028525955
 s    1 1.00
            0.12194962                   1
 p    1 1.00
                   0.8                   1

10 0
 s    3 1.00
             13.010701   0.033485484812989
             1.9622572    0.23472187088125
            0.44453796    0.81377028525955
 s    1 1.00
            0.12194962                   1
 p    1 1.00
                   0.8                   1

11 0
 s    3 1.00
             13.010701   0.033485484812989
             1.9622572    0.23472187088125
            0.44453796    0.81377028525955
 s    1 1.00
            0.12194962                   1
 p    1 1.00
                   0.8                   1

12 0
 s    5 1.00
          1712.8415853  -0.0054477995804909
          257.64812677  -0.040627174632423
          58.458245853   -0.18111962250584
          16.198367905   -0.46843975563173
          5.0052600809   -0.44616846289231
 s    1 1.00
         0.58731856571                   1
 s    1 1.00
         0.18764592253                   1
 p    3 1.00
          13.571470233  -0.058848116969522
          2.9257372874   -0.32024624762471
         0.79927750754   -0.75328226520436
 p    1 1.00
         0.21954348034                   1
 d    1 1.00
                     1                   1

13 0
 s    3 1.00
             13.010701   0.033485484812989
             1.9622572    0.23472187088125
            0.44453796    0.81377028525955
 s    1 1.00
            0.12194962                   1
 p    1 1.00
                   0.8                   1

14 0
 s    3 1.00
             13.010701   0.033485484812989
             1.9622572    0.23472187088125
            0.44453796    0.81377028525955
 s    1 1.00
            0.12194962                   1
 p    1 1.00
                   0.8                   1

15 0
 s    3 1.00
             13.010701   0.033485484812989
             1.9622572    0.23472187088125
            0.44453796    0.81377028525955
 s    1 1.00
            0.12194962                   1
 p    1 1.00
                   0.8                   1

16 0
 s    5 1.00
          1712.8415853  -0.0054477995804909
          257.64812677  -0.040627174632423
          58.458245853   -0.18111962250584
          16.198367905   -0.46843975563173
          5.0052600809   -0.44616846289231
 s    1 1.00
         0.58731856571                   1
 s    1 1.00
         0.18764592253                   1
 p    3 1.00
          13.571470233  -0.058848116969522
          2.9257372874   -0.32024624762471
         0.79927750754   -0.75328226520436
 p    1 1.00
         0.21954348034                   1
 d    1 1.00
                     1                   1

17 0
 s    3 1.00
             13.010701   0.033485484812989
             1.9622572    0.23472187088125
            0.44453796    0.81377028525955
 s    1 1.00
            0.12194962                   1
 p    1 1.00
                   0.8                   1

18 0
 s    3 1.00
             13.010701   0.033485484812989
             1.9622572    0.23472187088125
            0.44453796    0.81377028525955
 s    1 1.00
            0.12194962                   1
 p    1 1.00
                   0.8                   1

19 0
 s    3 1.00
             13.010701   0.033485484812989
             1.9622572    0.23472187088125
            0.44453796    0.81377028525955
 s    1 1.00
            0.12194962                   1
 p    1 1.00
                   0.8                   1

20 0
 s    5 1.00
          1712.8415853  -0.0054477995804909
          257.64812677  -0.040627174632423
          58.458245853   -0.18111962250584
          16.198367905   -0.46843975563173
          5.0052600809   -0.44616846289231
 s    1 1.00
         0.58731856571                   1
 s    1 1.00
         0.18764592253                   1
 p    3 1.00
          13.571470233  -0.058848116969522
          2.9257372874   -0.32024624762471
         0.79927750754   -0.75328226520436
 p    1 1.00
         0.21954348034                   1
 d    1 1.00
                     1                   1

21 0
 s    3 1.00
             13.010701   0.033485484812989
             1.9622572    0.23472187088125
            0.44453796    0.81377028525955
 s    1 1.00
            0.12194962                   1
 p    1 1.00
                   0.8                   1

22 0
 s    3 1.00
             13.010701   0.033485484812989
             1.9622572    0.23472187088125
            0.44453796    0.81377028525955
 s    1 1.00
            0.12194962                   1
 p    1 1.00
                   0.8                   1

23 0
 s    3 1.00
             13.010701   0.033485484812989
             1.9622572    0.23472187088125
            0.44453796    0.81377028525955
 s    1 1.00
            0.12194962                   1
 p    1 1.00
                   0.8                   1

24 0
 s    5 1.00
          1712.8415853  -0.0054477995804909
          257.64812677  -0.040627174632423
          58.458245853   -0.18111962250584
          16.198367905   -0.46843975563173
          5.0052600809   -0.44616846289231
 s    1 1.00
         0.58731856571                   1
 s    1 1.00
         0.18764592253                   1
 p    3 1.00
          13.571470233  -0.058848116969522
          2.9257372874   -0.32024624762471
         0.79927750754   -0.75328226520436
 p    1 1.00
         0.21954348034                   1
 d    1 1.00
                     1                   1

25 0
 s    3 1.00
             13.010701   0.033485484812989
             1.9622572    0.23472187088125
            0.44453796    0.81377028525955
 s    1 1.00
            0.12194962                   1
 p    1 1.00
                   0.8                   1

26 0
 s    3 1.00
             13.010701   0.033485484812989
             1.9622572    0.23472187088125
            0.44453796    0.81377028525955
 s    1 1.00
            0.12194962                   1
 p    1 1.00
                   0.8                   1

27 0
 s    3 1.00
             13.010701   0.033485484812989
             1.9622572    0.23472187088125
            0.44453796    0.81377028525955
 s    1 1.00
            0.12194962                   1
 p    1 1.00
                   0.8                   1

28 0
 s    5 1.00
          1712.8415853  -0.0054477995804909
          257.64812677  -0.040627174632423
          58.458245853   -0.18111962250584
          16.198367905   -0.46843975563173
          5.0052600809   -0.44616846289231
 s    1 1.00
         0.58731856571                   1
 s    1 1.00
         0.18764592253                   1
 p    3 1.00
          13.571470233  -0.058848116969522
          2.9257372874   -0.32024624762471
         0.79927750754   -0.75328226520436
 p    1 1.00
         0.21954348034                   1
 d    1 1.00
                     1                   1

29 0
 s    3 1.00
             13.010701   0.033485484812989
             1.9622572    0.23472187088125
            0.44453796    0.81377028525955
 s    1 1.00
            0.12194962                   1
 p    1 1.00
                   0.8                   1

30 0
 s    3 1.00
             13.010701   0.033485484812989
             1.9622572    0.23472187088125
            0.44453796    0.81377028525955
 s    1 1.00
            0.12194962                   1
 p    1 1.00
                   0.8                   1

31 0
 s    3 1.00
             13.010701   0.033485484812989
             1.9622572    0.23472187088125
            0.44453796    0.81377028525955
 s    1 1.00
            0.12194962                   1
 p    1 1.00
                   0.8                   1

32 0
 s    5 1.00
          1712.8415853  -0.0054477995804909
          257.64812677  -0.040627174632423
          58.458245853   -0.18111962250584
          16.198367905   -0.46843975563173
          5.0052600809   -0.44616846289231
 s    1 1.00
         0.58731856571                   1
 s    1 1.00
         0.18764592253                   1
 p    3 1.00
          13.571470233  -0.058848116969522
          2.9257372874   -0.32024624762471
         0.79927750754   -0.75328226520436
 p    1 1.00
         0.21954348034                   1
 d    1 1.00
                     1                   1

33 0
 s    3 1.00
             13.010701   0.033485484812989
             1.9622572    0.23472187088125
            0.44453796    0.81377028525955
 s    1 1.00
            0.12194962                   1
 p    1 1.00
                   0.8                   1

34 0
 s    3 1.00
             13.010701   0.033485484812989
             1.9622572    0.23472187088125
            0.44453796    0.81377028525955
 s    1 1.00
            0.12194962                   1
 p    1 1.00
                   0.8                   1

35 0
 s    3 1.00
             13.010701   0.033485484812989
             1.9622572    0.23472187088125
            0.44453796    0.81377028525955
 s    1 1.00
            0.12194962                   1
 p    1 1.00
                   0.8                   1

36 0
 s    5 1.00
          1712.8415853  -0.0054477995804909
          257.64812677  -0.040627174632423
          58.458245853   -0.18111962250584
          16.198367905   -0.46843975563173
          5.0052600809   -0.44616846289231
 s    1 1.00
         0.58731856571                   1
 s    1 1.00
         0.18764592253                   1
 p    3 1.00
          13.571470233  -0.058848116969522
          2.9257372874   -0.32024624762471
         0.79927750754   -0.75328226520436
 p    1 1.00
         0.21954348034                   1
 d    1 1.00
                     1                   1

37 0
 s    3 1.00
             13.010701   0.033485484812989
             1.9622572    0.23472187088125
            0.44453796    0.81377028525955
 s    1 1.00
            0.12194962                   1
 p    1 1.00
                   0.8                   1

38 0
 s    3 1.00
             13.010701   0.033485484812989
             1.9622572    0.23472187088125
            0.44453796    0.81377028525955
 s    1 1.00
            0.12194962                   1
 p    1 1.00
                   0.8                   1

39 0
 s    3 1.00
             13.010701   0.033485484812989
             1.9622572    0.23472187088125
            0.44453796    0.81377028525955
 s    1 1.00
            0.12194962                   1
 p    1 1.00
                   0.8                   1

40 0
 s    5 1.00
          1712.8415853  -0.0054477995804909
          257.64812677  -0.040627174632423
          58.458245853   -0.18111962250584
          16.198367905   -0.46843975563173
          5.0052600809   -0.44616846289231
 s    1 1.00
         0.58731856571                   1
 s    1 1.00
         0.18764592253                   1
 p    3 1.00
          13.571470233  -0.058848116969522
          2.9257372874   -0.32024624762471
         0.79927750754   -0.75328226520436
 p    1 1.00
         0.21954348034                   1
 d    1 1.00
                     1                   1

41 0
 s    3 1.00
             13.010701   0.033485484812989
             1.9622572    0.23472187088125
            0.44453796    0.81377028525955
 s    1 1.00
            0.12194962                   1
 p    1 1.00
                   0.8                   1

42 0
 s    3 1.00
             13.010701   0.033485484812989
             1.9622572    0.23472187088125
            0.44453796    0.81377028525955
 s    1 1.00
            0.12194962                   1
 p    1 1.00
                   0.8                   1

43 0
 s    3 1.00
             13.010701   0.033485484812989
             1.9622572    0.23472187088125
            0.44453796    0.81377028525955
 s    1 1.00
            0.12194962                   1
 p    1 1.00
                   0.8                   1

[5d]
[7f]
[9g]

[MO]
 Sym= A
 Ene=               0
 Spin= Alpha
 Occup=    1.00000
   1    -0.0037540165591963
   2     0.014461224334917
   3    -0.052254706966166
   4     0.030271423165974
   5    0.0044578873703234
   6    -0.013651267647743
   7     0.021481218160967
   8     0.015950418555124
   9     0.064231477672606
  10     -0.10118495264588
  11    -0.075045810777038
  12    0.0046113072560166
  13    -0.007036230512668
  14    -0.0048526486410856
  15    -0.035876613991296
  16    -0.020479161631326
  17     0.097947252004496
  18    0.0073961579928376
  19     -0.03533761040573
  20    -0.023170313586452
  21    0.0015367949801248
  22     0.046113116567802
  23     0.015852226429245
  24    -0.0035468760624897
  25    -0.00062380296821047
  26    -0.0003315320171961
  27    0.00027847773932389
  28    -0.0004850197145841
  29    -0.0012593595290601
  30    0.0010539578587586
  31    5.2332233818632e-06
  32    0.0020090253278083
  33    0.0013080176908189
  34     0.040323833836785
  35    -0.046527850032799
  36    0.0086832632114108
  37    0.0066516321399068
  38    -0.010596284878623
  39    -0.0078049383100645
  40    -0.040397743195918
  41     0.064084190588898
  42     0.047327262386216
  43     -0.02305326058997
  44     0.035889379057605
  45     0.025292382832144
  46     0.037827859265469
  47     0.035204557906789
  48      -0.1193362320504
  49    0.0026248433690764
  50     0.055235279675116
  51      0.02511901350708
  52      0.00945612045739
  53    -0.061992282271807
  54    -0.0083476257633355
  55     0.018837437482853
  56    -0.0040122133599187
  57    -0.001240860394054
  58    0.0017071637806898
  59    -0.0030223692447418
  60    -0.0065922977959046
  61    0.0048834888381787
  62    0.00048637895772388
  63     -0.16430183224086
  64     -0.33268517460843
  65     -0.26320217469067
  66      0.13170573788103
  67     -0.20778851018276
  68     -0.15345395046849
  69      0.11809060463893
  70     -0.18639116848665
  71     -0.13743242158246
  72    0.00068314302123239
  73    0.0036704124455313
  74    -0.0057936024969523
  75    0.0023510710530007
  76     0.004983769390833
  77     0.016826955278297
  78     0.067459465294334
  79     0.044989404506081
  80     0.040485293254584
  81     0.037802078883142
  82     0.028258751257684
  83    -0.031892164258157
  84    -0.024007690708483
  85    -0.017814791942084
  86    -0.00010883181696001
  87    -0.00074172704227502
  88    0.00033103588313998
  89    0.0011715383173936
  90    -0.00064854653451072
  91     0.020844309886724
  92    -0.0016068784749901
  93    -0.003293852691717
  94    -0.00072961571194626
  95    0.00044031997576943
  96    0.00048301196469983
  97    -0.007417065556636
  98    -0.0013041889137596
  99    -0.0011235395898898
 100    -0.0012412515823441
 101    -0.0090868932791798
 102     -0.01062624424452
 103    -0.0014334860083581
 104    -0.00045946727786417
 105    -0.00094097053301583
 106    -0.019518857568183
 107    -0.025122304861731
 108    -0.032733478543124
 109    -0.013737651390525
 110    -0.037652700194391
 111     0.079946854237705
 112    0.0048714004024786
 113     0.031945257108316
 114    -0.050312592071269
 115    0.0010567649506424
 116    -0.00018909845648659
 117    0.00073954332597057
 118    0.00020975631650493
 119    0.00078538309315784
 120    -0.0037484096864168
 121    3.3648770098267e-05
 122    0.00037026078601575
 123    0.00089832893993332
 124    -0.0026228439161115
 125     0.034185583562972
 126     0.007853964326755
 127     0.001216936321844
 128    0.0031504230873468
 129    0.0014654231256678
 130     0.020582489099535
 131    0.0048958478347616
 132    -0.0019030932029084
 133    -0.00060470410489793
 134    -0.0027041524936159
 135    -0.019428367063306
 136    -0.024902158672897
 137    -0.032863723151636
 138    -0.0064664119180898
 139     0.068126552340601
 140    -0.057693379212986
 141    -5.3937245642346e-05
 142    -0.041227875452304
 143     0.043671377707524
 144    -0.00076875963662686
 145    0.00046950395761572
 146    0.00022630157715433
 147    -0.0011743997600152
 148    -0.00035685489229712
 149     0.036073368569748
 150    0.0081885505060426
 151    -0.00023551616479882
 152    0.0024688112597915
 153    0.0028438628122001
 154    0.0014732364227657
 155    0.00067475052041397
 156    0.00067563692206267
 157    -0.0024941711784685
 158    0.0012861281979216
 159     0.015243503946544
 160    0.0039683221160826
 161    -0.001092875297164
 162    -0.003000355811908
 163    0.00012784311444685
 164     0.016651569292639
 165      0.06684709081845
 166     0.045431591844912
 167    -0.062342948610204
 168    -0.0003781593093729
 169    -0.0061473219424496
 170     0.043517443098562
 171    0.0042866029072887
 172    0.0072474060360827
 173    0.00071276746058912
 174    8.424004649927e-05
 175    0.0011013853737837
 176    -0.00036382955738679
 177    0.00069805418429427
 178    0.0027972227949787
 179    -0.006237525366543
 180    0.0022119501715634
 181    0.00035749083274846
 182    -0.00035392002214522
 183     0.019700130825454
 184    -0.0017254473719708
 185    0.0021938617804831
 186    0.00093064717951231
 187    0.0023400033379458
 188    -0.011024560526805
 189    -0.011542380865496
 190    0.0014336530465367
 191    0.00085710387804714
 192    0.0001530738542566
 193     0.020251903400946
 194     0.080706399438599
 195     0.044774812063779
 196      0.02273790098854
 197    -0.036140370209069
 198    -0.026500388388988
 199    -0.017572946967448
 200     0.029146545675485
 201     0.020686153372415
 202    -0.00024600426623402
 203    -0.00060355472094229
 204    0.0012522020726126
 205    -0.00029814558846415
 206    -0.0008589127655975
 207    0.0098230118015344
 208    -0.0035302765467196
 209    -0.0010201634265445
 210    -0.00036191853109464
 211    0.0021568229194589
 212     0.010993996251113
 213    -0.0029797593860103
 214    0.00064343198319849
 215    0.0022085107010559
 216    0.00085716642012395
 217     0.010841912596247
 218    -0.0035137174900238
 219    -0.0017387750530004
 220    0.0015875015662972
 221    -0.00073743836800128
 222    -0.010006413859568
 223    0.0060648715045039
 224    -0.013071134392559
 225     0.064188185196597
 226    0.0053105195585053
 227    0.0072284474839164
 228    -0.038601112125216
 229    -0.0077879765135628
 230    -0.0062710269887775
 231    0.00063521474492566
 232    0.00021940631706262
 233    4.3228941495113e-05
 234    -0.00036007715345159
 235    0.00046515325745425
 236    0.0051528939236508
 237    0.0048245823222837
 238    -0.0032587749210443
 239    0.00079515214803741
 240    1.8515104137193e-05
 241     0.020124415222904
 242    0.0054181709165064
 243    -0.0012909151286586
 244    -0.00077986466098321
 245    0.0024319725512594
 246      0.03307694281911
 247    0.0057376083682925
 248    0.0025543868105252
 249    -0.001442968702561
 250    -0.0031810947196292
 251     0.024932593236519
 252     0.094833365132578
 253     0.063158065600953
 254     0.010621926957549
 255    -0.065930824997602
 256     0.049757423161134
 257    -0.0057225722648143
 258     0.047729841118072
 259    -0.040111828652743
 260    -0.00040021890690159
 261    0.00049311084477812
 262    -0.00031272808028711
 263    -0.00053347281004465
 264    0.0002664479069689
 265     0.017339446058006
 266    -0.0037319587564066
 267    -0.00032486073600318
 268    0.0011750212804437
 269    -0.0046865855398717
 270    -0.0065757491999503
 271    -0.006524528116734
 272    -0.00015786260847818
 273    0.0013236049382687
 274    -0.00051676784866583
 275     0.007410015054306
 276    -0.0048136638914786
 277    0.00074991998193972
 278    0.0027800224208175
 279    -0.0019145078483826
 280    -0.010074603132383
 281    0.0058662871070564
 282    -0.012854250646493
 283     -0.04452368297788
 284    -0.036659368428594
 285    -0.029465399187632
 286      0.03040206298495
 287     0.018717044023175
 288     0.016650834073151
 289    0.00022514659846881
 290    -0.00038179921991967
 291    -0.00062701546084134
 292    0.0005402235315379
 293    -3.1619112083025e-05
 294     0.032765087470404
 295      0.00583613001836
 296    0.00093885186256961
 297    -0.0014526345576301
 298    -0.0038740206425832
 299     0.021705162889508
 300    0.0053105177704798
 301    -7.5644699379215e-05
 302    -0.00080854997798524
 303    0.0028393605674919
 304    0.0029684275695542
 305    0.0050880618981202
 306    0.0016562246117064
 307    0.0024664991668046
 308    0.0017029385243732
 309     0.025310202139439
 310     0.096130982156595
 311      0.06256207773093
 312     0.015091792574122
 313     0.032020888666561
 314    -0.074491998591118
 315    -0.0097014013097244
 316    -0.026457591265633
 317     0.054302724398746
 318    0.00079812266714541
 319    -0.00017004474236744
 320    0.00017075974601707
 321    0.00018129916987898
 322    0.00031171081384958
 323     0.018584627138813
 324    -0.0038452351863048
 325    0.00011524192109237
 326    -0.0044488226778829
 327    0.0023199499167637
 328    0.0037930920099287
 329    -0.0059110358449085
 330    -4.3931488971327e-05
 331    -0.00093013802165973
 332    0.0028250559398473
 333    -0.0028151367813769
 334    -0.006192160416225
 335    -0.00046990637707282
 336    -0.00038096527757456
 337    0.0018980236098994
 338     0.021561415482893
 339     0.084848373772357
 340     0.074083699271554
 341     -0.02106380203025
 342     0.032928302556995
 343     0.024484874052277
 344     0.027714114925512
 345    -0.041951358164815