[Molden Format]
made by pyscf v[2.1.1]
[Atoms] (AU)
Cr   1   24     1.56143912275337    -2.46507591990239    -1.82404491365355
Cr   2   24    -1.56139565905251     2.46513072196000     1.82399011159594
O   3   8     0.00002078698737     0.00002834589187    -0.00002645616574
N   4   7     5.12832174930954    -1.10581670549011    -0.60767356069801
H   5   1     6.65216855026694    -1.66292686427314    -1.66487895135981
H   6   1     5.63710405218294    -1.59213394419468     1.18765885421890
H   7   1     5.20084187906585     0.81566059741989    -0.65509245834172
N   8   7     1.71230729763415    -0.02251608677419    -4.99594076510539
H   9   1     0.29795878723855     1.27247165241550    -4.90823668593820
H   10   1     1.50271021425414    -0.85583806455427    -6.73026148236459
H   11   1     3.34039895052705     0.99863710888315    -5.18656310846864
N   12   7     1.41057094787259    -4.90763575303059     1.34785282752440
H   13   1     1.64193389675534    -6.79355407945465     0.97314659318890
H   14   1    -0.29048681014202    -4.81040367474334     2.24006056107205
H   15   1     2.72468082571676    -4.56691435331926     2.71738081369757
N   16   7    -2.00544350380280    -3.82433513431467    -3.04041437688297
H   17   1    -2.87205678671934    -5.05516478184926    -1.83221042023780
H   18   1    -2.03637832046193    -4.76397121413665    -4.73247136936628
H   19   1    -3.24475802163669    -2.37551046050250    -3.28123540501917
N   20   7     3.37923471211299    -5.33493873459111    -3.94755661599306
H   21   1     4.17102617885350    -4.76109883042731    -5.61685374703210
H   22   1     2.26176595533881    -6.82326057413281    -4.47610923358166
H   23   1     4.85383336053810    -6.19899521806112    -3.03922195969837
N   24   7    -5.12827828560868     1.10587339727385     0.60762064836653
H   25   1    -5.15408816501799    -0.81544705836782     0.54662784797006
H   26   1    -5.69743166898356     1.68113626520945    -1.14337690194197
H   27   1    -6.63528195761783     1.56841410187914     1.73267665553083
N   28   7    -1.71226383393328     0.02257088883181     4.99588785277390
H   29   1    -1.62991523860311     0.86667375415253     6.73575491620870
H   30   1    -0.22416876152653    -1.19157625647512     4.98456461383551
H   31   1    -3.28782110056328    -1.08746368536834     5.11339858210385
N   32   7     2.00548696750367     3.82438993637228     3.04035957482536
H   33   1     2.05186651577887     4.68410571893416     4.77402266739321
H   34   1     2.83712330958063     5.12208376337235     1.87805706574587
H   35   1     3.26582090902109     2.38241174030942     3.19051154350492
N   36   7    -1.41052748417173     4.90769055508820    -1.34790762958202
H   37   1    -1.75003190025884     6.78104976168840    -0.99229329828299
H   38   1    -2.65834387984003     4.49309409198925    -2.75785496783350
H   39   1     0.32278033988471     4.89894112313146    -2.18344058692784
N   40   7    -3.37919124841212     5.33499353664873     3.94750181393545
H   41   1    -2.26357064378777     6.83195331430581     4.45515784003860
H   42   1    -4.15358022727151     4.76963661305810     5.62761006813313
H   43   1    -4.86681766873998     6.18449345978121     3.04686590187224
[GTO]
1 0
 s    6 1.00
          51528.086349  0.0017695545768669
          7737.2103487   0.013556436258096
           1760.374847   0.067162645785071
          496.87706544    0.23295905918518
          161.46520598    0.47040576982722
          55.466352268    0.35733072606876
 s    3 1.00
          107.54732999   -0.10605255446629
          12.408671897    0.62543981484169
          5.0423628826    0.44878820793655
 s    3 1.00
          8.5461640165   -0.21819012081133
          1.3900441221    0.70422525667731
         0.56066602876    0.42488555412558
 s    1 1.00
        0.071483705972                   1
 s    1 1.00
        0.028250687604                   1
 p    5 1.00
          640.48536096  0.0093555063746755
          150.69711194   0.068993338492216
          47.503755296     0.2634118959318
          16.934120165    0.51034501651775
           6.240968059    0.33195512953954
 p    3 1.00
          3.0885463206    0.32917682676976
          1.1791047769    0.55491385190365
         0.43369774432    0.23818412855984
 p    1 1.00
              0.120675                   1
 d    4 1.00
          27.559479426   0.036950140313562
          7.4687020327    0.18821519783039
          2.4345903574    0.44641244239929
         0.78244754808     0.5681617303244
 d    1 1.00
         0.21995774311                   1
 f    1 1.00
                 1.147                   1

2 0
 s    6 1.00
          51528.086349  0.0017695545768669
          7737.2103487   0.013556436258096
           1760.374847   0.067162645785071
          496.87706544    0.23295905918518
          161.46520598    0.47040576982722
          55.466352268    0.35733072606876
 s    3 1.00
          107.54732999   -0.10605255446629
          12.408671897    0.62543981484169
          5.0423628826    0.44878820793655
 s    3 1.00
          8.5461640165   -0.21819012081133
          1.3900441221    0.70422525667731
         0.56066602876    0.42488555412558
 s    1 1.00
        0.071483705972                   1
 s    1 1.00
        0.028250687604                   1
 p    5 1.00
          640.48536096  0.0093555063746755
          150.69711194   0.068993338492216
          47.503755296     0.2634118959318
          16.934120165    0.51034501651775
           6.240968059    0.33195512953954
 p    3 1.00
          3.0885463206    0.32917682676976
          1.1791047769    0.55491385190365
         0.43369774432    0.23818412855984
 p    1 1.00
              0.120675                   1
 d    4 1.00
          27.559479426   0.036950140313562
          7.4687020327    0.18821519783039
          2.4345903574    0.44641244239929
         0.78244754808     0.5681617303244
 d    1 1.00
         0.21995774311                   1
 f    1 1.00
                 1.147                   1

3 0
 s    5 1.00
          2266.1767785  -0.0053893503921743
          340.87010191   -0.04023472138896
          77.363135167   -0.18008184205526
           21.47964494   -0.46828857657651
          6.6589433124   -0.44692617160187
 s    1 1.00
         0.80975975668                   1
 s    1 1.00
         0.25530772234                   1
 p    3 1.00
          17.721504317   0.062630248763161
           3.863550544    0.33331138482352
          1.0480920883    0.74148638308122
 p    1 1.00
         0.27641544411                   1
 d    1 1.00
                   1.2                   1

4 0
 s    5 1.00
          1712.8415853  -0.0054477995804909
          257.64812677  -0.040627174632423
          58.458245853   -0.18111962250584
          16.198367905   -0.46843975563173
          5.0052600809   -0.44616846289231
 s    1 1.00
         0.58731856571                   1
 s    1 1.00
         0.18764592253                   1
 p    3 1.00
          13.571470233  -0.058848116969522
          2.9257372874   -0.32024624762471
         0.79927750754   -0.75328226520436
 p    1 1.00
         0.21954348034                   1
 d    1 1.00
                     1                   1

5 0
 s    3 1.00
             13.010701   0.033485484812989
             1.9622572    0.23472187088125
            0.44453796    0.81377028525955
 s    1 1.00
            0.12194962                   1
 p    1 1.00
                   0.8                   1

6 0
 s    3 1.00
             13.010701   0.033485484812989
             1.9622572    0.23472187088125
            0.44453796    0.81377028525955
 s    1 1.00
            0.12194962                   1
 p    1 1.00
                   0.8                   1

7 0
 s    3 1.00
             13.010701   0.033485484812989
             1.9622572    0.23472187088125
            0.44453796    0.81377028525955
 s    1 1.00
            0.12194962                   1
 p    1 1.00
                   0.8                   1

8 0
 s    5 1.00
          1712.8415853  -0.0054477995804909
          257.64812677  -0.040627174632423
          58.458245853   -0.18111962250584
          16.198367905   -0.46843975563173
          5.0052600809   -0.44616846289231
 s    1 1.00
         0.58731856571                   1
 s    1 1.00
         0.18764592253                   1
 p    3 1.00
          13.571470233  -0.058848116969522
          2.9257372874   -0.32024624762471
         0.79927750754   -0.75328226520436
 p    1 1.00
         0.21954348034                   1
 d    1 1.00
                     1                   1

9 0
 s    3 1.00
             13.010701   0.033485484812989
             1.9622572    0.23472187088125
            0.44453796    0.81377028525955
 s    1 1.00
            0.12194962                   1
 p    1 1.00
                   0.8                   1

10 0
 s    3 1.00
             13.010701   0.033485484812989
             1.9622572    0.23472187088125
            0.44453796    0.81377028525955
 s    1 1.00
            0.12194962                   1
 p    1 1.00
                   0.8                   1

11 0
 s    3 1.00
             13.010701   0.033485484812989
             1.9622572    0.23472187088125
            0.44453796    0.81377028525955
 s    1 1.00
            0.12194962                   1
 p    1 1.00
                   0.8                   1

12 0
 s    5 1.00
          1712.8415853  -0.0054477995804909
          257.64812677  -0.040627174632423
          58.458245853   -0.18111962250584
          16.198367905   -0.46843975563173
          5.0052600809   -0.44616846289231
 s    1 1.00
         0.58731856571                   1
 s    1 1.00
         0.18764592253                   1
 p    3 1.00
          13.571470233  -0.058848116969522
          2.9257372874   -0.32024624762471
         0.79927750754   -0.75328226520436
 p    1 1.00
         0.21954348034                   1
 d    1 1.00
                     1                   1

13 0
 s    3 1.00
             13.010701   0.033485484812989
             1.9622572    0.23472187088125
            0.44453796    0.81377028525955
 s    1 1.00
            0.12194962                   1
 p    1 1.00
                   0.8                   1

14 0
 s    3 1.00
             13.010701   0.033485484812989
             1.9622572    0.23472187088125
            0.44453796    0.81377028525955
 s    1 1.00
            0.12194962                   1
 p    1 1.00
                   0.8                   1

15 0
 s    3 1.00
             13.010701   0.033485484812989
             1.9622572    0.23472187088125
            0.44453796    0.81377028525955
 s    1 1.00
            0.12194962                   1
 p    1 1.00
                   0.8                   1

16 0
 s    5 1.00
          1712.8415853  -0.0054477995804909
          257.64812677  -0.040627174632423
          58.458245853   -0.18111962250584
          16.198367905   -0.46843975563173
          5.0052600809   -0.44616846289231
 s    1 1.00
         0.58731856571                   1
 s    1 1.00
         0.18764592253                   1
 p    3 1.00
          13.571470233  -0.058848116969522
          2.9257372874   -0.32024624762471
         0.79927750754   -0.75328226520436
 p    1 1.00
         0.21954348034                   1
 d    1 1.00
                     1                   1

17 0
 s    3 1.00
             13.010701   0.033485484812989
             1.9622572    0.23472187088125
            0.44453796    0.81377028525955
 s    1 1.00
            0.12194962                   1
 p    1 1.00
                   0.8                   1

18 0
 s    3 1.00
             13.010701   0.033485484812989
             1.9622572    0.23472187088125
            0.44453796    0.81377028525955
 s    1 1.00
            0.12194962                   1
 p    1 1.00
                   0.8                   1

19 0
 s    3 1.00
             13.010701   0.033485484812989
             1.9622572    0.23472187088125
            0.44453796    0.81377028525955
 s    1 1.00
            0.12194962                   1
 p    1 1.00
                   0.8                   1

20 0
 s    5 1.00
          1712.8415853  -0.0054477995804909
          257.64812677  -0.040627174632423
          58.458245853   -0.18111962250584
          16.198367905   -0.46843975563173
          5.0052600809   -0.44616846289231
 s    1 1.00
         0.58731856571                   1
 s    1 1.00
         0.18764592253                   1
 p    3 1.00
          13.571470233  -0.058848116969522
          2.9257372874   -0.32024624762471
         0.79927750754   -0.75328226520436
 p    1 1.00
         0.21954348034                   1
 d    1 1.00
                     1                   1

21 0
 s    3 1.00
             13.010701   0.033485484812989
             1.9622572    0.23472187088125
            0.44453796    0.81377028525955
 s    1 1.00
            0.12194962                   1
 p    1 1.00
                   0.8                   1

22 0
 s    3 1.00
             13.010701   0.033485484812989
             1.9622572    0.23472187088125
            0.44453796    0.81377028525955
 s    1 1.00
            0.12194962                   1
 p    1 1.00
                   0.8                   1

23 0
 s    3 1.00
             13.010701   0.033485484812989
             1.9622572    0.23472187088125
            0.44453796    0.81377028525955
 s    1 1.00
            0.12194962                   1
 p    1 1.00
                   0.8                   1

24 0
 s    5 1.00
          1712.8415853  -0.0054477995804909
          257.64812677  -0.040627174632423
          58.458245853   -0.18111962250584
          16.198367905   -0.46843975563173
          5.0052600809   -0.44616846289231
 s    1 1.00
         0.58731856571                   1
 s    1 1.00
         0.18764592253                   1
 p    3 1.00
          13.571470233  -0.058848116969522
          2.9257372874   -0.32024624762471
         0.79927750754   -0.75328226520436
 p    1 1.00
         0.21954348034                   1
 d    1 1.00
                     1                   1

25 0
 s    3 1.00
             13.010701   0.033485484812989
             1.9622572    0.23472187088125
            0.44453796    0.81377028525955
 s    1 1.00
            0.12194962                   1
 p    1 1.00
                   0.8                   1

26 0
 s    3 1.00
             13.010701   0.033485484812989
             1.9622572    0.23472187088125
            0.44453796    0.81377028525955
 s    1 1.00
            0.12194962                   1
 p    1 1.00
                   0.8                   1

27 0
 s    3 1.00
             13.010701   0.033485484812989
             1.9622572    0.23472187088125
            0.44453796    0.81377028525955
 s    1 1.00
            0.12194962                   1
 p    1 1.00
                   0.8                   1

28 0
 s    5 1.00
          1712.8415853  -0.0054477995804909
          257.64812677  -0.040627174632423
          58.458245853   -0.18111962250584
          16.198367905   -0.46843975563173
          5.0052600809   -0.44616846289231
 s    1 1.00
         0.58731856571                   1
 s    1 1.00
         0.18764592253                   1
 p    3 1.00
          13.571470233  -0.058848116969522
          2.9257372874   -0.32024624762471
         0.79927750754   -0.75328226520436
 p    1 1.00
         0.21954348034                   1
 d    1 1.00
                     1                   1

29 0
 s    3 1.00
             13.010701   0.033485484812989
             1.9622572    0.23472187088125
            0.44453796    0.81377028525955
 s    1 1.00
            0.12194962                   1
 p    1 1.00
                   0.8                   1

30 0
 s    3 1.00
             13.010701   0.033485484812989
             1.9622572    0.23472187088125
            0.44453796    0.81377028525955
 s    1 1.00
            0.12194962                   1
 p    1 1.00
                   0.8                   1

31 0
 s    3 1.00
             13.010701   0.033485484812989
             1.9622572    0.23472187088125
            0.44453796    0.81377028525955
 s    1 1.00
            0.12194962                   1
 p    1 1.00
                   0.8                   1

32 0
 s    5 1.00
          1712.8415853  -0.0054477995804909
          257.64812677  -0.040627174632423
          58.458245853   -0.18111962250584
          16.198367905   -0.46843975563173
          5.0052600809   -0.44616846289231
 s    1 1.00
         0.58731856571                   1
 s    1 1.00
         0.18764592253                   1
 p    3 1.00
          13.571470233  -0.058848116969522
          2.9257372874   -0.32024624762471
         0.79927750754   -0.75328226520436
 p    1 1.00
         0.21954348034                   1
 d    1 1.00
                     1                   1

33 0
 s    3 1.00
             13.010701   0.033485484812989
             1.9622572    0.23472187088125
            0.44453796    0.81377028525955
 s    1 1.00
            0.12194962                   1
 p    1 1.00
                   0.8                   1

34 0
 s    3 1.00
             13.010701   0.033485484812989
             1.9622572    0.23472187088125
            0.44453796    0.81377028525955
 s    1 1.00
            0.12194962                   1
 p    1 1.00
                   0.8                   1

35 0
 s    3 1.00
             13.010701   0.033485484812989
             1.9622572    0.23472187088125
            0.44453796    0.81377028525955
 s    1 1.00
            0.12194962                   1
 p    1 1.00
                   0.8                   1

36 0
 s    5 1.00
          1712.8415853  -0.0054477995804909
          257.64812677  -0.040627174632423
          58.458245853   -0.18111962250584
          16.198367905   -0.46843975563173
          5.0052600809   -0.44616846289231
 s    1 1.00
         0.58731856571                   1
 s    1 1.00
         0.18764592253                   1
 p    3 1.00
          13.571470233  -0.058848116969522
          2.9257372874   -0.32024624762471
         0.79927750754   -0.75328226520436
 p    1 1.00
         0.21954348034                   1
 d    1 1.00
                     1                   1

37 0
 s    3 1.00
             13.010701   0.033485484812989
             1.9622572    0.23472187088125
            0.44453796    0.81377028525955
 s    1 1.00
            0.12194962                   1
 p    1 1.00
                   0.8                   1

38 0
 s    3 1.00
             13.010701   0.033485484812989
             1.9622572    0.23472187088125
            0.44453796    0.81377028525955
 s    1 1.00
            0.12194962                   1
 p    1 1.00
                   0.8                   1

39 0
 s    3 1.00
             13.010701   0.033485484812989
             1.9622572    0.23472187088125
            0.44453796    0.81377028525955
 s    1 1.00
            0.12194962                   1
 p    1 1.00
                   0.8                   1

40 0
 s    5 1.00
          1712.8415853  -0.0054477995804909
          257.64812677  -0.040627174632423
          58.458245853   -0.18111962250584
          16.198367905   -0.46843975563173
          5.0052600809   -0.44616846289231
 s    1 1.00
         0.58731856571                   1
 s    1 1.00
         0.18764592253                   1
 p    3 1.00
          13.571470233  -0.058848116969522
          2.9257372874   -0.32024624762471
         0.79927750754   -0.75328226520436
 p    1 1.00
         0.21954348034                   1
 d    1 1.00
                     1                   1

41 0
 s    3 1.00
             13.010701   0.033485484812989
             1.9622572    0.23472187088125
            0.44453796    0.81377028525955
 s    1 1.00
            0.12194962                   1
 p    1 1.00
                   0.8                   1

42 0
 s    3 1.00
             13.010701   0.033485484812989
             1.9622572    0.23472187088125
            0.44453796    0.81377028525955
 s    1 1.00
            0.12194962                   1
 p    1 1.00
                   0.8                   1

43 0
 s    3 1.00
             13.010701   0.033485484812989
             1.9622572    0.23472187088125
            0.44453796    0.81377028525955
 s    1 1.00
            0.12194962                   1
 p    1 1.00
                   0.8                   1

[5d]
[7f]
[9g]

[MO]
 Sym= A
 Ene=               0
 Spin= Alpha
 Occup=    1.00000
   1    0.0021393262577207
   2    0.00071288648397072
   3     0.042163558980038
   4    -0.046483428984928
   5    0.0085406064982336
   6    -0.0059824279122796
   7    0.0095546849578255
   8    0.0070243428323544
   9     0.036973524215272
  10    -0.058728334458997
  11    -0.043329479181477
  12     0.022687199204699
  13    -0.035179011158519
  14    -0.024948532000357
  15     0.041466384403678
  16     0.032962850498427
  17     -0.12401273050652
  18    -0.0013743499762209
  19     0.053135962303083
  20     0.027735491303264
  21    0.0078355085397908
  22    -0.065385031233132
  23     -0.01126723471764
  24     0.017311681179928
  25    0.0039505278980892
  26    0.0012484829757477
  27    -0.001682073993911
  28    0.0029808886427419
  29     0.006530246699054
  30    -0.0048610432375736
  31    -0.00046687169189036
  32    -0.0036245024187601
  33     0.013866846499733
  34      -0.0504311933484
  35     0.030318407886762
  36    0.0043686391706074
  37     0.012989174281778
  38    -0.020429050745998
  39     -0.01517745309785
  40    -0.060830425546553
  41     0.095793777388399
  42     0.071074411722406
  43    -0.0041817776167536
  44    0.0064072282249825
  45    0.0044116639578357
  46    -0.037725357057348
  47     -0.01914508876667
  48      0.10021275568711
  49    0.0095776322365001
  50    -0.034116610941692
  51    -0.024501882861225
  52    0.0024668940432404
  53      0.04773122062411
  54     0.017408408194626
  55    -0.0026840453856914
  56    0.00065128267190203
  57    0.00035253216843359
  58    -0.00029213187534605
  59    0.00050790583276439
  60    0.0013244416872816
  61    -0.0011145905024366
  62    1.8700657265313e-07
  63      -0.1497132507952
  64     -0.32431840478539
  65     -0.25567874545506
  66      -0.1317755375747
  67      0.20774867299719
  68      0.15343779992874
  69     -0.11813986403267
  70      0.18633611608124
  71       0.1374346317177
  72    0.00067171813024129
  73    0.0035692229115883
  74    -0.0056533150343545
  75     0.002281252898871
  76    0.0048439659591511
  77    -0.012209613171448
  78    -0.00094906420845398
  79    -0.018256944505075
  80    -0.070931184178133
  81    -0.009594801147361
  82    -0.010594648032503
  83     0.043638939654912
  84     0.010661442177767
  85    0.0086313259699062
  86    0.00059002791302936
  87    0.00023640202176427
  88    5.7598140912836e-05
  89    -0.00044317494790498
  90    0.00045132787439142
  91     0.032658818060279
  92    0.0060955960045675
  93    -0.0023364545331927
  94    0.0018369360313706
  95    0.0031096201556785
  96       0.0194712981364
  97    0.0061069196946759
  98     0.001727325470533
  99    0.00070920896924541
 100    -0.0022782603242788
 101    0.0072880059759744
 102    0.0056244860751171
 103    0.0033654043489099
 104    -0.00091705337183181
 105     0.000100238269246
 106     0.027165379536944
 107     0.099112682980363
 108     0.067411653202866
 109    -0.0098708861696718
 110     0.071281089709927
 111    -0.057821756677068
 112    0.0054724593865094
 113    -0.051717006855893
 114     0.045506065470019
 115    -0.00042145951353739
 116    0.00051909438371178
 117    -0.00037804225868888
 118    -0.00048950125326001
 119    0.00027685951968299
 120    -0.0074015946515386
 121    -0.0071091313378513
 122    7.6879034070054e-05
 123    -0.0013671139697495
 124    0.00079180696348773
 125     0.014540034786281
 126    -0.0045467110216536
 127    0.00042995963334952
 128    -0.0015205652480145
 129    0.0045554340140158
 130    0.0066510737884839
 131    -0.0053523228344852
 132    -0.00073892546897881
 133    -0.0028471515943537
 134    0.0022875082686887
 135     0.027558429009694
 136      0.10042177356076
 137     0.066977232526777
 138    -0.015324283351853
 139     -0.03873654031632
 140     0.081472890774868
 141     0.010112813569047
 142     0.030930737245454
 143    -0.059365307062336
 144    0.00082824153865605
 145    -0.00013536703699536
 146    0.00014645899042732
 147    0.0002013970508533
 148    0.00035529321998037
 149      0.01598154645497
 150    -0.0046272376991446
 151    9.8015433004293e-05
 152    0.0043049208774194
 153    -0.0025844430805372
 154    -0.0040360601670416
 155    -0.0067802422884648
 156    0.00034999615645215
 157    0.00058298941765813
 158    -0.0019876546661965
 159    0.0032160477487775
 160    -0.0064528535453002
 161    5.5267054119316e-05
 162    0.0012842473542382
 163    -0.0030039060140476
 164    -0.012259834802888
 165    -0.0011032646426462
 166    -0.017981230253544
 167     0.052895806529443
 168     0.038067129478936
 169     0.031224008245467
 170    -0.036434393168012
 171     -0.01987529463029
 172    -0.018028604514941
 173    0.00017161820149921
 174    -0.00039646015346896
 175    -0.00062775581402572
 176    0.00052410582318537
 177    -0.00010025093812808
 178     0.021215248672722
 179    0.0058812409411631
 180    -0.0001963878399838
 181    0.00052727607843539
 182    -0.0029455087174543
 183     0.032452297743691
 184    0.0062777370197742
 185    -0.0012692761998077
 186    0.0016051229029231
 187    0.0036897747081285
 188    0.0048464764389386
 189     0.005838427190316
 190    -0.0017376247304351
 191    -0.0026428215443582
 192    -0.0017094054204041
 193     0.020466020534249
 194     0.080455157967616
 195     0.071130822564003
 196     0.019957615466489
 197    -0.031092849111776
 198    -0.023169478910893
 199    -0.026733661041613
 200      0.04005803951482
 201     0.030367867638782
 202    0.00016671556846907
 203    1.5061824986093e-05
 204    -0.00032686670124507
 205    -9.8674490846804e-05
 206    6.7550993525588e-05
 207     0.013384646961433
 208    -0.0019326024809012
 209    -0.0014233943766284
 210    -0.00019066732636014
 211    0.0024114740704722
 212     0.011938166651204
 213    -0.0027279703547731
 214    0.0014929875161244
 215    0.0021381345381445
 216    0.00095979533796207
 217     0.013029413358502
 218    -0.0022640404633184
 219    -0.0023790631012749
 220    0.0013187436448641
 221    -0.00089640796194019
 222     0.017989868630743
 223      0.06900064866035
 224     0.047089340624841
 225    -0.045672971078994
 226    -0.039080167491628
 227    -0.029179043983596
 228     0.035293554787459
 229     0.025201311102252
 230     0.018576775286851
 231    -3.1685214340514e-05
 232    -0.00071112158180667
 233    0.00024175741516962
 234    0.0011753220306202
 235    -0.00056976847502861
 236    -0.010013494289067
 237    -0.011140202458791
 238      0.00165611726383
 239    0.00037134159969606
 240    0.00091808615462481
 241    0.0005309509263071
 242    -0.0072817638278469
 243    0.0014616418964147
 244    0.0011467131249767
 245    0.0012528466824894
 246     0.018460972693377
 247    -0.002264628002296
 248    0.0031580467860605
 249    0.00098172186506392
 250    -0.00032516043580679
 251    -0.020618596419035
 252    -0.029322937151608
 253    -0.035694231597411
 254     0.012882766376473
 255     0.041530084768156
 256    -0.082269558402244
 257    -0.0044035839657872
 258    -0.034613991607866
 259     0.052219902641837
 260    0.0010430633803816
 261    -0.00026701408007686
 262    0.00078073356271148
 263    0.00013646021504765
 264    0.00065535424848401
 265     0.033903829379059
 266    0.0081671503583213
 267    -0.00085708047173033
 268    -0.0032990489047869
 269    -0.0013651159734644
 270     -0.00180451478741
 271    0.00071511365093225
 272    -0.00049881886245267
 273    -0.00085681818198666
 274    0.0027067746057465
 275     0.018969363595568
 276    0.0048270531229739
 277     0.001640481032339
 278    0.00049274141647938
 279    0.0028967033347828
 280     0.017834180806969
 281     0.068434395011111
 282     0.047600031476925
 283     0.066660142850039
 284    0.0028962208260152
 285    0.0083197086884819
 286    -0.046601599593117
 287    -0.0057088411813868
 288    -0.0085835867590217
 289    0.00071413547721195
 290    0.00011034999837175
 291    0.00098842712410763
 292    -0.00034727613343964
 293    0.0007209124082503
 294     0.017261289109876
 295    -0.0023453077688016
 296    -0.0023266755186786
 297    -0.00074649276337102
 298    -0.0021627611145398
 299    0.0025219881513308
 300    -0.0063002469143415
 301    -0.0023116549485208
 302    -0.00041545216823061
 303    0.00023689765955004
 304    -0.011528688736441
 305    -0.012034856196598
 306    -0.0015225253976805
 307    -0.0010193199861539
 308    -0.00028541700586883
 309    -0.020568725958364
 310    -0.029222792511404
 311    -0.035778752394195
 312    0.0054402484037551
 313     -0.06949881573244
 314     0.061856937125567
 315     0.000551800531497
 316     0.042423888029524
 317    -0.046650553885683
 318    -0.00077896015547885
 319    0.00038131725088645
 320    0.0002115496499607
 321    -0.0011073585597891
 322    -0.00044915467015788
 323     0.035282825414283
 324    0.0083670574321002
 325    0.00054743046181953
 326    -0.0022833788428596
 327    -0.0029276826754939
 328     0.014012038208557
 329    0.0039957272144558
 330    0.00089955681699507
 331    0.0030740100247499
 332    -0.00033188639319436
 333     0.003316973588946
 334    0.0014046159719356
 335    -0.0008448458794587
 336    0.0025325749223053
 337     -0.00133204502116
 338     0.019152680831183
 339     0.076293918721833
 340     0.041836673856195
 341    -0.021588561887036
 342     0.034352421300096
 343     0.025157160371298
 344     0.016429632073718
 345    -0.027457079573227