[Molden Format]
made by pyscf v[2.1.1]
[Atoms] (AU)
Cr   1   24     1.56143912275337    -2.46507591990239    -1.82404491365355
Cr   2   24    -1.56139565905251     2.46513072196000     1.82399011159594
O   3   8     0.00002078698737     0.00002834589187    -0.00002645616574
N   4   7     5.12832174930954    -1.10581670549011    -0.60767356069801
H   5   1     6.65216855026694    -1.66292686427314    -1.66487895135981
H   6   1     5.63710405218294    -1.59213394419468     1.18765885421890
H   7   1     5.20084187906585     0.81566059741989    -0.65509245834172
N   8   7     1.71230729763415    -0.02251608677419    -4.99594076510539
H   9   1     0.29795878723855     1.27247165241550    -4.90823668593820
H   10   1     1.50271021425414    -0.85583806455427    -6.73026148236459
H   11   1     3.34039895052705     0.99863710888315    -5.18656310846864
N   12   7     1.41057094787259    -4.90763575303059     1.34785282752440
H   13   1     1.64193389675534    -6.79355407945465     0.97314659318890
H   14   1    -0.29048681014202    -4.81040367474334     2.24006056107205
H   15   1     2.72468082571676    -4.56691435331926     2.71738081369757
N   16   7    -2.00544350380280    -3.82433513431467    -3.04041437688297
H   17   1    -2.87205678671934    -5.05516478184926    -1.83221042023780
H   18   1    -2.03637832046193    -4.76397121413665    -4.73247136936628
H   19   1    -3.24475802163669    -2.37551046050250    -3.28123540501917
N   20   7     3.37923471211299    -5.33493873459111    -3.94755661599306
H   21   1     4.17102617885350    -4.76109883042731    -5.61685374703210
H   22   1     2.26176595533881    -6.82326057413281    -4.47610923358166
H   23   1     4.85383336053810    -6.19899521806112    -3.03922195969837
N   24   7    -5.12827828560868     1.10587339727385     0.60762064836653
H   25   1    -5.15408816501799    -0.81544705836782     0.54662784797006
H   26   1    -5.69743166898356     1.68113626520945    -1.14337690194197
H   27   1    -6.63528195761783     1.56841410187914     1.73267665553083
N   28   7    -1.71226383393328     0.02257088883181     4.99588785277390
H   29   1    -1.62991523860311     0.86667375415253     6.73575491620870
H   30   1    -0.22416876152653    -1.19157625647512     4.98456461383551
H   31   1    -3.28782110056328    -1.08746368536834     5.11339858210385
N   32   7     2.00548696750367     3.82438993637228     3.04035957482536
H   33   1     2.05186651577887     4.68410571893416     4.77402266739321
H   34   1     2.83712330958063     5.12208376337235     1.87805706574587
H   35   1     3.26582090902109     2.38241174030942     3.19051154350492
N   36   7    -1.41052748417173     4.90769055508820    -1.34790762958202
H   37   1    -1.75003190025884     6.78104976168840    -0.99229329828299
H   38   1    -2.65834387984003     4.49309409198925    -2.75785496783350
H   39   1     0.32278033988471     4.89894112313146    -2.18344058692784
N   40   7    -3.37919124841212     5.33499353664873     3.94750181393545
H   41   1    -2.26357064378777     6.83195331430581     4.45515784003860
H   42   1    -4.15358022727151     4.76963661305810     5.62761006813313
H   43   1    -4.86681766873998     6.18449345978121     3.04686590187224
[GTO]
1 0
 s    6 1.00
          51528.086349  0.0017695545768669
          7737.2103487   0.013556436258096
           1760.374847   0.067162645785071
          496.87706544    0.23295905918518
          161.46520598    0.47040576982722
          55.466352268    0.35733072606876
 s    3 1.00
          107.54732999   -0.10605255446629
          12.408671897    0.62543981484169
          5.0423628826    0.44878820793655
 s    3 1.00
          8.5461640165   -0.21819012081133
          1.3900441221    0.70422525667731
         0.56066602876    0.42488555412558
 s    1 1.00
        0.071483705972                   1
 s    1 1.00
        0.028250687604                   1
 p    5 1.00
          640.48536096  0.0093555063746755
          150.69711194   0.068993338492216
          47.503755296     0.2634118959318
          16.934120165    0.51034501651775
           6.240968059    0.33195512953954
 p    3 1.00
          3.0885463206    0.32917682676976
          1.1791047769    0.55491385190365
         0.43369774432    0.23818412855984
 p    1 1.00
              0.120675                   1
 d    4 1.00
          27.559479426   0.036950140313562
          7.4687020327    0.18821519783039
          2.4345903574    0.44641244239929
         0.78244754808     0.5681617303244
 d    1 1.00
         0.21995774311                   1
 f    1 1.00
                 1.147                   1

2 0
 s    6 1.00
          51528.086349  0.0017695545768669
          7737.2103487   0.013556436258096
           1760.374847   0.067162645785071
          496.87706544    0.23295905918518
          161.46520598    0.47040576982722
          55.466352268    0.35733072606876
 s    3 1.00
          107.54732999   -0.10605255446629
          12.408671897    0.62543981484169
          5.0423628826    0.44878820793655
 s    3 1.00
          8.5461640165   -0.21819012081133
          1.3900441221    0.70422525667731
         0.56066602876    0.42488555412558
 s    1 1.00
        0.071483705972                   1
 s    1 1.00
        0.028250687604                   1
 p    5 1.00
          640.48536096  0.0093555063746755
          150.69711194   0.068993338492216
          47.503755296     0.2634118959318
          16.934120165    0.51034501651775
           6.240968059    0.33195512953954
 p    3 1.00
          3.0885463206    0.32917682676976
          1.1791047769    0.55491385190365
         0.43369774432    0.23818412855984
 p    1 1.00
              0.120675                   1
 d    4 1.00
          27.559479426   0.036950140313562
          7.4687020327    0.18821519783039
          2.4345903574    0.44641244239929
         0.78244754808     0.5681617303244
 d    1 1.00
         0.21995774311                   1
 f    1 1.00
                 1.147                   1

3 0
 s    5 1.00
          2266.1767785  -0.0053893503921743
          340.87010191   -0.04023472138896
          77.363135167   -0.18008184205526
           21.47964494   -0.46828857657651
          6.6589433124   -0.44692617160187
 s    1 1.00
         0.80975975668                   1
 s    1 1.00
         0.25530772234                   1
 p    3 1.00
          17.721504317   0.062630248763161
           3.863550544    0.33331138482352
          1.0480920883    0.74148638308122
 p    1 1.00
         0.27641544411                   1
 d    1 1.00
                   1.2                   1

4 0
 s    5 1.00
          1712.8415853  -0.0054477995804909
          257.64812677  -0.040627174632423
          58.458245853   -0.18111962250584
          16.198367905   -0.46843975563173
          5.0052600809   -0.44616846289231
 s    1 1.00
         0.58731856571                   1
 s    1 1.00
         0.18764592253                   1
 p    3 1.00
          13.571470233  -0.058848116969522
          2.9257372874   -0.32024624762471
         0.79927750754   -0.75328226520436
 p    1 1.00
         0.21954348034                   1
 d    1 1.00
                     1                   1

5 0
 s    3 1.00
             13.010701   0.033485484812989
             1.9622572    0.23472187088125
            0.44453796    0.81377028525955
 s    1 1.00
            0.12194962                   1
 p    1 1.00
                   0.8                   1

6 0
 s    3 1.00
             13.010701   0.033485484812989
             1.9622572    0.23472187088125
            0.44453796    0.81377028525955
 s    1 1.00
            0.12194962                   1
 p    1 1.00
                   0.8                   1

7 0
 s    3 1.00
             13.010701   0.033485484812989
             1.9622572    0.23472187088125
            0.44453796    0.81377028525955
 s    1 1.00
            0.12194962                   1
 p    1 1.00
                   0.8                   1

8 0
 s    5 1.00
          1712.8415853  -0.0054477995804909
          257.64812677  -0.040627174632423
          58.458245853   -0.18111962250584
          16.198367905   -0.46843975563173
          5.0052600809   -0.44616846289231
 s    1 1.00
         0.58731856571                   1
 s    1 1.00
         0.18764592253                   1
 p    3 1.00
          13.571470233  -0.058848116969522
          2.9257372874   -0.32024624762471
         0.79927750754   -0.75328226520436
 p    1 1.00
         0.21954348034                   1
 d    1 1.00
                     1                   1

9 0
 s    3 1.00
             13.010701   0.033485484812989
             1.9622572    0.23472187088125
            0.44453796    0.81377028525955
 s    1 1.00
            0.12194962                   1
 p    1 1.00
                   0.8                   1

10 0
 s    3 1.00
             13.010701   0.033485484812989
             1.9622572    0.23472187088125
            0.44453796    0.81377028525955
 s    1 1.00
            0.12194962                   1
 p    1 1.00
                   0.8                   1

11 0
 s    3 1.00
             13.010701   0.033485484812989
             1.9622572    0.23472187088125
            0.44453796    0.81377028525955
 s    1 1.00
            0.12194962                   1
 p    1 1.00
                   0.8                   1

12 0
 s    5 1.00
          1712.8415853  -0.0054477995804909
          257.64812677  -0.040627174632423
          58.458245853   -0.18111962250584
          16.198367905   -0.46843975563173
          5.0052600809   -0.44616846289231
 s    1 1.00
         0.58731856571                   1
 s    1 1.00
         0.18764592253                   1
 p    3 1.00
          13.571470233  -0.058848116969522
          2.9257372874   -0.32024624762471
         0.79927750754   -0.75328226520436
 p    1 1.00
         0.21954348034                   1
 d    1 1.00
                     1                   1

13 0
 s    3 1.00
             13.010701   0.033485484812989
             1.9622572    0.23472187088125
            0.44453796    0.81377028525955
 s    1 1.00
            0.12194962                   1
 p    1 1.00
                   0.8                   1

14 0
 s    3 1.00
             13.010701   0.033485484812989
             1.9622572    0.23472187088125
            0.44453796    0.81377028525955
 s    1 1.00
            0.12194962                   1
 p    1 1.00
                   0.8                   1

15 0
 s    3 1.00
             13.010701   0.033485484812989
             1.9622572    0.23472187088125
            0.44453796    0.81377028525955
 s    1 1.00
            0.12194962                   1
 p    1 1.00
                   0.8                   1

16 0
 s    5 1.00
          1712.8415853  -0.0054477995804909
          257.64812677  -0.040627174632423
          58.458245853   -0.18111962250584
          16.198367905   -0.46843975563173
          5.0052600809   -0.44616846289231
 s    1 1.00
         0.58731856571                   1
 s    1 1.00
         0.18764592253                   1
 p    3 1.00
          13.571470233  -0.058848116969522
          2.9257372874   -0.32024624762471
         0.79927750754   -0.75328226520436
 p    1 1.00
         0.21954348034                   1
 d    1 1.00
                     1                   1

17 0
 s    3 1.00
             13.010701   0.033485484812989
             1.9622572    0.23472187088125
            0.44453796    0.81377028525955
 s    1 1.00
            0.12194962                   1
 p    1 1.00
                   0.8                   1

18 0
 s    3 1.00
             13.010701   0.033485484812989
             1.9622572    0.23472187088125
            0.44453796    0.81377028525955
 s    1 1.00
            0.12194962                   1
 p    1 1.00
                   0.8                   1

19 0
 s    3 1.00
             13.010701   0.033485484812989
             1.9622572    0.23472187088125
            0.44453796    0.81377028525955
 s    1 1.00
            0.12194962                   1
 p    1 1.00
                   0.8                   1

20 0
 s    5 1.00
          1712.8415853  -0.0054477995804909
          257.64812677  -0.040627174632423
          58.458245853   -0.18111962250584
          16.198367905   -0.46843975563173
          5.0052600809   -0.44616846289231
 s    1 1.00
         0.58731856571                   1
 s    1 1.00
         0.18764592253                   1
 p    3 1.00
          13.571470233  -0.058848116969522
          2.9257372874   -0.32024624762471
         0.79927750754   -0.75328226520436
 p    1 1.00
         0.21954348034                   1
 d    1 1.00
                     1                   1

21 0
 s    3 1.00
             13.010701   0.033485484812989
             1.9622572    0.23472187088125
            0.44453796    0.81377028525955
 s    1 1.00
            0.12194962                   1
 p    1 1.00
                   0.8                   1

22 0
 s    3 1.00
             13.010701   0.033485484812989
             1.9622572    0.23472187088125
            0.44453796    0.81377028525955
 s    1 1.00
            0.12194962                   1
 p    1 1.00
                   0.8                   1

23 0
 s    3 1.00
             13.010701   0.033485484812989
             1.9622572    0.23472187088125
            0.44453796    0.81377028525955
 s    1 1.00
            0.12194962                   1
 p    1 1.00
                   0.8                   1

24 0
 s    5 1.00
          1712.8415853  -0.0054477995804909
          257.64812677  -0.040627174632423
          58.458245853   -0.18111962250584
          16.198367905   -0.46843975563173
          5.0052600809   -0.44616846289231
 s    1 1.00
         0.58731856571                   1
 s    1 1.00
         0.18764592253                   1
 p    3 1.00
          13.571470233  -0.058848116969522
          2.9257372874   -0.32024624762471
         0.79927750754   -0.75328226520436
 p    1 1.00
         0.21954348034                   1
 d    1 1.00
                     1                   1

25 0
 s    3 1.00
             13.010701   0.033485484812989
             1.9622572    0.23472187088125
            0.44453796    0.81377028525955
 s    1 1.00
            0.12194962                   1
 p    1 1.00
                   0.8                   1

26 0
 s    3 1.00
             13.010701   0.033485484812989
             1.9622572    0.23472187088125
            0.44453796    0.81377028525955
 s    1 1.00
            0.12194962                   1
 p    1 1.00
                   0.8                   1

27 0
 s    3 1.00
             13.010701   0.033485484812989
             1.9622572    0.23472187088125
            0.44453796    0.81377028525955
 s    1 1.00
            0.12194962                   1
 p    1 1.00
                   0.8                   1

28 0
 s    5 1.00
          1712.8415853  -0.0054477995804909
          257.64812677  -0.040627174632423
          58.458245853   -0.18111962250584
          16.198367905   -0.46843975563173
          5.0052600809   -0.44616846289231
 s    1 1.00
         0.58731856571                   1
 s    1 1.00
         0.18764592253                   1
 p    3 1.00
          13.571470233  -0.058848116969522
          2.9257372874   -0.32024624762471
         0.79927750754   -0.75328226520436
 p    1 1.00
         0.21954348034                   1
 d    1 1.00
                     1                   1

29 0
 s    3 1.00
             13.010701   0.033485484812989
             1.9622572    0.23472187088125
            0.44453796    0.81377028525955
 s    1 1.00
            0.12194962                   1
 p    1 1.00
                   0.8                   1

30 0
 s    3 1.00
             13.010701   0.033485484812989
             1.9622572    0.23472187088125
            0.44453796    0.81377028525955
 s    1 1.00
            0.12194962                   1
 p    1 1.00
                   0.8                   1

31 0
 s    3 1.00
             13.010701   0.033485484812989
             1.9622572    0.23472187088125
            0.44453796    0.81377028525955
 s    1 1.00
            0.12194962                   1
 p    1 1.00
                   0.8                   1

32 0
 s    5 1.00
          1712.8415853  -0.0054477995804909
          257.64812677  -0.040627174632423
          58.458245853   -0.18111962250584
          16.198367905   -0.46843975563173
          5.0052600809   -0.44616846289231
 s    1 1.00
         0.58731856571                   1
 s    1 1.00
         0.18764592253                   1
 p    3 1.00
          13.571470233  -0.058848116969522
          2.9257372874   -0.32024624762471
         0.79927750754   -0.75328226520436
 p    1 1.00
         0.21954348034                   1
 d    1 1.00
                     1                   1

33 0
 s    3 1.00
             13.010701   0.033485484812989
             1.9622572    0.23472187088125
            0.44453796    0.81377028525955
 s    1 1.00
            0.12194962                   1
 p    1 1.00
                   0.8                   1

34 0
 s    3 1.00
             13.010701   0.033485484812989
             1.9622572    0.23472187088125
            0.44453796    0.81377028525955
 s    1 1.00
            0.12194962                   1
 p    1 1.00
                   0.8                   1

35 0
 s    3 1.00
             13.010701   0.033485484812989
             1.9622572    0.23472187088125
            0.44453796    0.81377028525955
 s    1 1.00
            0.12194962                   1
 p    1 1.00
                   0.8                   1

36 0
 s    5 1.00
          1712.8415853  -0.0054477995804909
          257.64812677  -0.040627174632423
          58.458245853   -0.18111962250584
          16.198367905   -0.46843975563173
          5.0052600809   -0.44616846289231
 s    1 1.00
         0.58731856571                   1
 s    1 1.00
         0.18764592253                   1
 p    3 1.00
          13.571470233  -0.058848116969522
          2.9257372874   -0.32024624762471
         0.79927750754   -0.75328226520436
 p    1 1.00
         0.21954348034                   1
 d    1 1.00
                     1                   1

37 0
 s    3 1.00
             13.010701   0.033485484812989
             1.9622572    0.23472187088125
            0.44453796    0.81377028525955
 s    1 1.00
            0.12194962                   1
 p    1 1.00
                   0.8                   1

38 0
 s    3 1.00
             13.010701   0.033485484812989
             1.9622572    0.23472187088125
            0.44453796    0.81377028525955
 s    1 1.00
            0.12194962                   1
 p    1 1.00
                   0.8                   1

39 0
 s    3 1.00
             13.010701   0.033485484812989
             1.9622572    0.23472187088125
            0.44453796    0.81377028525955
 s    1 1.00
            0.12194962                   1
 p    1 1.00
                   0.8                   1

40 0
 s    5 1.00
          1712.8415853  -0.0054477995804909
          257.64812677  -0.040627174632423
          58.458245853   -0.18111962250584
          16.198367905   -0.46843975563173
          5.0052600809   -0.44616846289231
 s    1 1.00
         0.58731856571                   1
 s    1 1.00
         0.18764592253                   1
 p    3 1.00
          13.571470233  -0.058848116969522
          2.9257372874   -0.32024624762471
         0.79927750754   -0.75328226520436
 p    1 1.00
         0.21954348034                   1
 d    1 1.00
                     1                   1

41 0
 s    3 1.00
             13.010701   0.033485484812989
             1.9622572    0.23472187088125
            0.44453796    0.81377028525955
 s    1 1.00
            0.12194962                   1
 p    1 1.00
                   0.8                   1

42 0
 s    3 1.00
             13.010701   0.033485484812989
             1.9622572    0.23472187088125
            0.44453796    0.81377028525955
 s    1 1.00
            0.12194962                   1
 p    1 1.00
                   0.8                   1

43 0
 s    3 1.00
             13.010701   0.033485484812989
             1.9622572    0.23472187088125
            0.44453796    0.81377028525955
 s    1 1.00
            0.12194962                   1
 p    1 1.00
                   0.8                   1

[5d]
[7f]
[9g]

[MO]
 Sym= A
 Ene=               0
 Spin= Alpha
 Occup=    1.00000
   1      0.01151398701347
   2    -0.025499260827838
   3      0.20642356291352
   4    -0.041524288013382
   5    -0.0053118201917152
   6     0.023267039056325
   7    -0.037726940126525
   8    -0.027212099803859
   9     -0.12036021326851
  10      0.19433007113919
  11       0.1406954754149
  12    0.0091960673863389
  13    -0.013979853038518
  14    -0.011385597134886
  15     0.058390037989687
  16     0.021169951622294
  17     -0.14485934674913
  18    -0.021179795919381
  19     0.041710040308693
  20     0.039983728738852
  21    0.00027465098177534
  22    -0.082781899008347
  23    -0.024961963990807
  24     0.010088276788267
  25    0.0021621051441546
  26    0.00086614435245417
  27    -0.00090323295359001
  28    0.0017135200990641
  29    0.0038954167125216
  30    -0.0030506776961983
  31    -0.00015249125678901
  32    -0.011523273953077
  33      0.02552238182886
  34     -0.20657800336214
  35     0.041980793998707
  36    0.0054022159885525
  37     0.023254403259041
  38     -0.03771186212115
  39    -0.027198490319516
  40     -0.12033286868913
  41      0.19430441251719
  42      0.14066672875773
  43    0.0091960435458569
  44    -0.014039972342773
  45    -0.011317738740118
  46    -0.056813278847843
  47    -0.021289741045637
  48      0.14192199735455
  49     0.020105793649705
  50     -0.04157992672029
  51    -0.038833207517033
  52    -0.00035927756210483
  53     0.080580386383759
  54     0.024216919524419
  55    -0.0099333851503089
  56    0.0021672769689206
  57    0.00085848208230292
  58    -0.0009061088814403
  59    0.0017141452307246
  60    0.0038948013703863
  61     -0.00304349104357
  62    -0.00015284014832291
  63    -0.00080341915649409
  64    -0.002098696391251
  65    -0.0012201732321773
  66     -0.11269073910334
  67       0.1769936464691
  68      0.12968319396623
  69    -0.099170340256795
  70      0.15572849968244
  71      0.11419301977221
  72    1.1896105007706e-05
  73    1.8931730333528e-05
  74    -4.7254000873702e-05
  75    7.6776969443039e-06
  76    2.4856712780201e-05
  77    -0.020163733685054
  78     -0.06711131361716
  79    -0.045641533324789
  80    -0.057689121203103
  81    -0.049552418904738
  82    -0.037024673117838
  83     0.038236208831863
  84     0.033857531843591
  85     0.024483651167242
  86    0.00011195809481026
  87    0.0011531233359597
  88    -0.00057941353580835
  89    -0.0014884269392532
  90    0.00093928201930407
  91    -0.016779912747416
  92    0.0030943924105342
  93    0.0032728440394041
  94    0.0014875083923657
  95    0.00051083849421805
  96    0.0073937219751244
  97    0.0097157605516284
  98    0.0018662477671808
  99    0.0013266601408294
 100    0.00040036593558025
 101     0.017511328003223
 102     0.012841769585509
 103    0.0024491816168876
 104    -0.0004679675001062
 105    0.0006948578150814
 106     0.041589966730196
 107     0.090127803134535
 108     0.087008862217431
 109     0.016742012349287
 110     0.083922614260401
 111     -0.14497278533884
 112      -0.0078095923424
 113    -0.066581863040975
 114       0.1005584162866
 115    -0.0013172128156009
 116     0.000176398180972
 117    -0.0012481505919571
 118    -0.00029523530179486
 119    -0.00099373510446495
 120     0.005057769743617
 121    -0.0059809194914797
 122    -0.00023373604266783
 123    -0.0026738271795901
 124    0.0041922951064753
 125    -0.040880327106873
 126    -0.013355770442943
 127    -0.0012752376452724
 128    -0.0048610178256846
 129    -0.00010791915013694
 130    -0.023466368433839
 131    -0.0099769177215485
 132      0.00216216332593
 133    -0.00084466028864632
 134     0.004640255110881
 135      0.03996903734115
 136     0.085610376416429
 137     0.083643961101682
 138    0.0026298094165538
 139     -0.11573763611775
 140      0.11663067298314
 141    0.0022102210342575
 142     0.078303744200872
 143    -0.087287528632541
 144    0.0010981620321151
 145    -0.00051587348532681
 146    -0.0005242594340951
 147    0.0014679163548795
 148    0.00046715668727346
 149     -0.04155565975963
 150    -0.013028406569038
 151    0.00047212889043204
 152    -0.0015261306187747
 153    -0.004752539910996
 154    -0.0029604165468535
 155    -0.0065949348799697
 156    -0.00069876636112068
 157    0.0035834878046019
 158    -0.0032523961042054
 159    -0.017635092391086
 160    -0.0094308616244588
 161    0.0016371883815224
 162    0.0044688262329467
 163    -0.0019154095886678
 164    -0.021004140517758
 165    -0.069373175355843
 166    -0.048519311467348
 167     0.085099634910034
 168     0.005671846235114
 169     0.011854818626239
 170    -0.058117569063913
 171    -0.0032754718513393
 172    -0.007928845297619
 173    -0.00095724881517842
 174    -2.8602643041376e-05
 175    -0.0015083728859511
 176    0.00046839756668666
 177    -0.00070673744570999
 178    0.0044233998197116
 179    0.0083582611836041
 180    -0.002329920953863
 181    -0.00031830318872073
 182    -0.00063922421760614
 183    -0.014373837540257
 184    0.0035613897057763
 185    -0.0030835587442539
 186    -0.00067222882493727
 187    -0.0015846963051565
 188     0.017355633011182
 189     0.013953252002816
 190    -0.0014955504554043
 191    -0.0020319458751358
 192    -0.00089623018730926
 193    -0.019192822577771
 194    -0.075976643547447
 195    -0.038363085944006
 196    -0.022747533444205
 197     0.036178300689479
 198     0.026543166069144
 199     0.013983325734996
 200    -0.024580009956623
 201    -0.016746311767851
 202    0.00029290365632711
 203    0.00036363780635711
 204    -0.0010613719940817
 205    6.7253860651196e-05
 206    0.00055201820204899
 207    -0.0073100273615316
 208    0.0040486058668647
 209    0.0010091825928415
 210    -0.00017562672639194
 211    -0.0020363861065641
 212    -0.0094814248579042
 213    0.0030355482688313
 214    0.00018413547596078
 215    -0.0023905135531515
 216    -0.001063001850183
 217    -0.0089338564908936
 218    0.0037403099503478
 219    0.0015226888750039
 220    -0.0019684146413324
 221    0.00014396511714546
 222     0.019597159875769
 223     0.065707907834366
 224     0.044486809818955
 225    -0.055625579455896
 226    -0.049197328055629
 227    -0.036369284400784
 228     0.036694006313077
 229     0.033666444762432
 230     0.023956819588746
 231    3.4394428311225e-05
 232    -0.0011504222339607
 233    0.00043436675977118
 234    0.0015330603578566
 235    -0.00084107965005114
 236    -0.018131786988947
 237    -0.013044879603882
 238    0.0024546601670598
 239    -0.00054148505531696
 240    0.00060140439151743
 241    -0.0059615235129803
 242    -0.0091375089863709
 243    0.0017790809028396
 244    0.0013488398065477
 245    0.0005295511410821
 246     0.016520259676572
 247    -0.0031271631593115
 248    0.0031614953561193
 249    0.0015315437416707
 250    0.00042072824422268
 251    -0.040373961379728
 252      -0.0870877375376
 253    -0.084342367342821
 254     0.016612986787061
 255     0.080912490057905
 256     -0.14112096496674
 257    -0.0077312949995092
 258    -0.064374969920898
 259     0.097896827418644
 260    0.0013737541872816
 261    -0.00029280749117228
 262    0.0013193465102216
 263    0.00016483000828592
 264    0.00085158542872075
 265     0.041239241855109
 266     0.013255155215411
 267    -0.00091227534063094
 268    -0.0048102399724954
 269    -0.00028024767085771
 270    -0.0042391799132194
 271    0.0054958110068665
 272    -0.00029567230218869
 273    -0.0025223968451536
 274    0.0041192043092601
 275     0.021128947774189
 276    0.0093394738816832
 277    0.0018355986667088
 278    -0.00076896567750618
 279    0.0046491687141694
 280     0.020468638856747
 281     0.068043335683171
 282     0.047451621148707
 283     0.083345683075141
 284    0.0047707510227614
 285     0.011100991609658
 286    -0.056778340659356
 287    -0.0026314985430137
 288    -0.0073946519888329
 289    0.0010222456387922
 290    5.0822937649155e-05
 291    0.0013656089275322
 292    -0.00046181215748134
 293    0.00077413646553392
 294     0.014073627563072
 295    -0.0035113088315152
 296    -0.0030031743307658
 297    -0.00058607994329686
 298    -0.0015785209711844
 299    -0.0032821776269485
 300    -0.0079709739878046
 301    -0.0023424218443822
 302    -0.0003116081654566
 303    -0.00053180317716711
 304    -0.017661832541036
 305    -0.014179947087654
 306    -0.0014257646070087
 307    -0.0020343367785755
 308    -0.00092865740351394
 309    -0.038761482136663
 310    -0.082587534441438
 311    -0.081007122684671
 312    0.0030801668033883
 313     -0.11273472069419
 314      0.11286269598824
 315    0.0017211263966837
 316     0.076190131220622
 317    -0.084543396197981
 318    -0.0011089461853503
 319    0.00041386395836703
 320    0.00049924777823454
 321    -0.0014571755012087
 322    -0.00061637948893553
 323     0.041433185826646
 324     0.012761489766944
 325    0.00076618092588421
 326    -0.0015640514190097
 327    -0.0045842652892021
 328     0.015611053830666
 329    0.0089074126905635
 330    0.0013636982414245
 331    0.0043819173168342
 332    -0.0019187394665711
 333    0.0038523699499882
 334    0.0063972823978924
 335    -0.00083822938163689
 336    0.0034972166426897
 337    -0.0031244170159413
 338     0.018505220791898
 339     0.074293353449209
 340     0.036769272248464
 341    -0.021541512254635
 342      0.03425966897466
 343      0.02514650633906
 344     0.013142060910964
 345    -0.023113521066804