[Molden Format]
made by pyscf v[2.1.1]
[Atoms] (AU)
Cr   1   24     1.56143912275337    -2.46507591990239    -1.82404491365355
Cr   2   24    -1.56139565905251     2.46513072196000     1.82399011159594
O   3   8     0.00002078698737     0.00002834589187    -0.00002645616574
N   4   7     5.12832174930954    -1.10581670549011    -0.60767356069801
H   5   1     6.65216855026694    -1.66292686427314    -1.66487895135981
H   6   1     5.63710405218294    -1.59213394419468     1.18765885421890
H   7   1     5.20084187906585     0.81566059741989    -0.65509245834172
N   8   7     1.71230729763415    -0.02251608677419    -4.99594076510539
H   9   1     0.29795878723855     1.27247165241550    -4.90823668593820
H   10   1     1.50271021425414    -0.85583806455427    -6.73026148236459
H   11   1     3.34039895052705     0.99863710888315    -5.18656310846864
N   12   7     1.41057094787259    -4.90763575303059     1.34785282752440
H   13   1     1.64193389675534    -6.79355407945465     0.97314659318890
H   14   1    -0.29048681014202    -4.81040367474334     2.24006056107205
H   15   1     2.72468082571676    -4.56691435331926     2.71738081369757
N   16   7    -2.00544350380280    -3.82433513431467    -3.04041437688297
H   17   1    -2.87205678671934    -5.05516478184926    -1.83221042023780
H   18   1    -2.03637832046193    -4.76397121413665    -4.73247136936628
H   19   1    -3.24475802163669    -2.37551046050250    -3.28123540501917
N   20   7     3.37923471211299    -5.33493873459111    -3.94755661599306
H   21   1     4.17102617885350    -4.76109883042731    -5.61685374703210
H   22   1     2.26176595533881    -6.82326057413281    -4.47610923358166
H   23   1     4.85383336053810    -6.19899521806112    -3.03922195969837
N   24   7    -5.12827828560868     1.10587339727385     0.60762064836653
H   25   1    -5.15408816501799    -0.81544705836782     0.54662784797006
H   26   1    -5.69743166898356     1.68113626520945    -1.14337690194197
H   27   1    -6.63528195761783     1.56841410187914     1.73267665553083
N   28   7    -1.71226383393328     0.02257088883181     4.99588785277390
H   29   1    -1.62991523860311     0.86667375415253     6.73575491620870
H   30   1    -0.22416876152653    -1.19157625647512     4.98456461383551
H   31   1    -3.28782110056328    -1.08746368536834     5.11339858210385
N   32   7     2.00548696750367     3.82438993637228     3.04035957482536
H   33   1     2.05186651577887     4.68410571893416     4.77402266739321
H   34   1     2.83712330958063     5.12208376337235     1.87805706574587
H   35   1     3.26582090902109     2.38241174030942     3.19051154350492
N   36   7    -1.41052748417173     4.90769055508820    -1.34790762958202
H   37   1    -1.75003190025884     6.78104976168840    -0.99229329828299
H   38   1    -2.65834387984003     4.49309409198925    -2.75785496783350
H   39   1     0.32278033988471     4.89894112313146    -2.18344058692784
N   40   7    -3.37919124841212     5.33499353664873     3.94750181393545
H   41   1    -2.26357064378777     6.83195331430581     4.45515784003860
H   42   1    -4.15358022727151     4.76963661305810     5.62761006813313
H   43   1    -4.86681766873998     6.18449345978121     3.04686590187224
[GTO]
1 0
 s    6 1.00
          51528.086349  0.0017695545768669
          7737.2103487   0.013556436258096
           1760.374847   0.067162645785071
          496.87706544    0.23295905918518
          161.46520598    0.47040576982722
          55.466352268    0.35733072606876
 s    3 1.00
          107.54732999   -0.10605255446629
          12.408671897    0.62543981484169
          5.0423628826    0.44878820793655
 s    3 1.00
          8.5461640165   -0.21819012081133
          1.3900441221    0.70422525667731
         0.56066602876    0.42488555412558
 s    1 1.00
        0.071483705972                   1
 s    1 1.00
        0.028250687604                   1
 p    5 1.00
          640.48536096  0.0093555063746755
          150.69711194   0.068993338492216
          47.503755296     0.2634118959318
          16.934120165    0.51034501651775
           6.240968059    0.33195512953954
 p    3 1.00
          3.0885463206    0.32917682676976
          1.1791047769    0.55491385190365
         0.43369774432    0.23818412855984
 p    1 1.00
              0.120675                   1
 d    4 1.00
          27.559479426   0.036950140313562
          7.4687020327    0.18821519783039
          2.4345903574    0.44641244239929
         0.78244754808     0.5681617303244
 d    1 1.00
         0.21995774311                   1
 f    1 1.00
                 1.147                   1

2 0
 s    6 1.00
          51528.086349  0.0017695545768669
          7737.2103487   0.013556436258096
           1760.374847   0.067162645785071
          496.87706544    0.23295905918518
          161.46520598    0.47040576982722
          55.466352268    0.35733072606876
 s    3 1.00
          107.54732999   -0.10605255446629
          12.408671897    0.62543981484169
          5.0423628826    0.44878820793655
 s    3 1.00
          8.5461640165   -0.21819012081133
          1.3900441221    0.70422525667731
         0.56066602876    0.42488555412558
 s    1 1.00
        0.071483705972                   1
 s    1 1.00
        0.028250687604                   1
 p    5 1.00
          640.48536096  0.0093555063746755
          150.69711194   0.068993338492216
          47.503755296     0.2634118959318
          16.934120165    0.51034501651775
           6.240968059    0.33195512953954
 p    3 1.00
          3.0885463206    0.32917682676976
          1.1791047769    0.55491385190365
         0.43369774432    0.23818412855984
 p    1 1.00
              0.120675                   1
 d    4 1.00
          27.559479426   0.036950140313562
          7.4687020327    0.18821519783039
          2.4345903574    0.44641244239929
         0.78244754808     0.5681617303244
 d    1 1.00
         0.21995774311                   1
 f    1 1.00
                 1.147                   1

3 0
 s    5 1.00
          2266.1767785  -0.0053893503921743
          340.87010191   -0.04023472138896
          77.363135167   -0.18008184205526
           21.47964494   -0.46828857657651
          6.6589433124   -0.44692617160187
 s    1 1.00
         0.80975975668                   1
 s    1 1.00
         0.25530772234                   1
 p    3 1.00
          17.721504317   0.062630248763161
           3.863550544    0.33331138482352
          1.0480920883    0.74148638308122
 p    1 1.00
         0.27641544411                   1
 d    1 1.00
                   1.2                   1

4 0
 s    5 1.00
          1712.8415853  -0.0054477995804909
          257.64812677  -0.040627174632423
          58.458245853   -0.18111962250584
          16.198367905   -0.46843975563173
          5.0052600809   -0.44616846289231
 s    1 1.00
         0.58731856571                   1
 s    1 1.00
         0.18764592253                   1
 p    3 1.00
          13.571470233  -0.058848116969522
          2.9257372874   -0.32024624762471
         0.79927750754   -0.75328226520436
 p    1 1.00
         0.21954348034                   1
 d    1 1.00
                     1                   1

5 0
 s    3 1.00
             13.010701   0.033485484812989
             1.9622572    0.23472187088125
            0.44453796    0.81377028525955
 s    1 1.00
            0.12194962                   1
 p    1 1.00
                   0.8                   1

6 0
 s    3 1.00
             13.010701   0.033485484812989
             1.9622572    0.23472187088125
            0.44453796    0.81377028525955
 s    1 1.00
            0.12194962                   1
 p    1 1.00
                   0.8                   1

7 0
 s    3 1.00
             13.010701   0.033485484812989
             1.9622572    0.23472187088125
            0.44453796    0.81377028525955
 s    1 1.00
            0.12194962                   1
 p    1 1.00
                   0.8                   1

8 0
 s    5 1.00
          1712.8415853  -0.0054477995804909
          257.64812677  -0.040627174632423
          58.458245853   -0.18111962250584
          16.198367905   -0.46843975563173
          5.0052600809   -0.44616846289231
 s    1 1.00
         0.58731856571                   1
 s    1 1.00
         0.18764592253                   1
 p    3 1.00
          13.571470233  -0.058848116969522
          2.9257372874   -0.32024624762471
         0.79927750754   -0.75328226520436
 p    1 1.00
         0.21954348034                   1
 d    1 1.00
                     1                   1

9 0
 s    3 1.00
             13.010701   0.033485484812989
             1.9622572    0.23472187088125
            0.44453796    0.81377028525955
 s    1 1.00
            0.12194962                   1
 p    1 1.00
                   0.8                   1

10 0
 s    3 1.00
             13.010701   0.033485484812989
             1.9622572    0.23472187088125
            0.44453796    0.81377028525955
 s    1 1.00
            0.12194962                   1
 p    1 1.00
                   0.8                   1

11 0
 s    3 1.00
             13.010701   0.033485484812989
             1.9622572    0.23472187088125
            0.44453796    0.81377028525955
 s    1 1.00
            0.12194962                   1
 p    1 1.00
                   0.8                   1

12 0
 s    5 1.00
          1712.8415853  -0.0054477995804909
          257.64812677  -0.040627174632423
          58.458245853   -0.18111962250584
          16.198367905   -0.46843975563173
          5.0052600809   -0.44616846289231
 s    1 1.00
         0.58731856571                   1
 s    1 1.00
         0.18764592253                   1
 p    3 1.00
          13.571470233  -0.058848116969522
          2.9257372874   -0.32024624762471
         0.79927750754   -0.75328226520436
 p    1 1.00
         0.21954348034                   1
 d    1 1.00
                     1                   1

13 0
 s    3 1.00
             13.010701   0.033485484812989
             1.9622572    0.23472187088125
            0.44453796    0.81377028525955
 s    1 1.00
            0.12194962                   1
 p    1 1.00
                   0.8                   1

14 0
 s    3 1.00
             13.010701   0.033485484812989
             1.9622572    0.23472187088125
            0.44453796    0.81377028525955
 s    1 1.00
            0.12194962                   1
 p    1 1.00
                   0.8                   1

15 0
 s    3 1.00
             13.010701   0.033485484812989
             1.9622572    0.23472187088125
            0.44453796    0.81377028525955
 s    1 1.00
            0.12194962                   1
 p    1 1.00
                   0.8                   1

16 0
 s    5 1.00
          1712.8415853  -0.0054477995804909
          257.64812677  -0.040627174632423
          58.458245853   -0.18111962250584
          16.198367905   -0.46843975563173
          5.0052600809   -0.44616846289231
 s    1 1.00
         0.58731856571                   1
 s    1 1.00
         0.18764592253                   1
 p    3 1.00
          13.571470233  -0.058848116969522
          2.9257372874   -0.32024624762471
         0.79927750754   -0.75328226520436
 p    1 1.00
         0.21954348034                   1
 d    1 1.00
                     1                   1

17 0
 s    3 1.00
             13.010701   0.033485484812989
             1.9622572    0.23472187088125
            0.44453796    0.81377028525955
 s    1 1.00
            0.12194962                   1
 p    1 1.00
                   0.8                   1

18 0
 s    3 1.00
             13.010701   0.033485484812989
             1.9622572    0.23472187088125
            0.44453796    0.81377028525955
 s    1 1.00
            0.12194962                   1
 p    1 1.00
                   0.8                   1

19 0
 s    3 1.00
             13.010701   0.033485484812989
             1.9622572    0.23472187088125
            0.44453796    0.81377028525955
 s    1 1.00
            0.12194962                   1
 p    1 1.00
                   0.8                   1

20 0
 s    5 1.00
          1712.8415853  -0.0054477995804909
          257.64812677  -0.040627174632423
          58.458245853   -0.18111962250584
          16.198367905   -0.46843975563173
          5.0052600809   -0.44616846289231
 s    1 1.00
         0.58731856571                   1
 s    1 1.00
         0.18764592253                   1
 p    3 1.00
          13.571470233  -0.058848116969522
          2.9257372874   -0.32024624762471
         0.79927750754   -0.75328226520436
 p    1 1.00
         0.21954348034                   1
 d    1 1.00
                     1                   1

21 0
 s    3 1.00
             13.010701   0.033485484812989
             1.9622572    0.23472187088125
            0.44453796    0.81377028525955
 s    1 1.00
            0.12194962                   1
 p    1 1.00
                   0.8                   1

22 0
 s    3 1.00
             13.010701   0.033485484812989
             1.9622572    0.23472187088125
            0.44453796    0.81377028525955
 s    1 1.00
            0.12194962                   1
 p    1 1.00
                   0.8                   1

23 0
 s    3 1.00
             13.010701   0.033485484812989
             1.9622572    0.23472187088125
            0.44453796    0.81377028525955
 s    1 1.00
            0.12194962                   1
 p    1 1.00
                   0.8                   1

24 0
 s    5 1.00
          1712.8415853  -0.0054477995804909
          257.64812677  -0.040627174632423
          58.458245853   -0.18111962250584
          16.198367905   -0.46843975563173
          5.0052600809   -0.44616846289231
 s    1 1.00
         0.58731856571                   1
 s    1 1.00
         0.18764592253                   1
 p    3 1.00
          13.571470233  -0.058848116969522
          2.9257372874   -0.32024624762471
         0.79927750754   -0.75328226520436
 p    1 1.00
         0.21954348034                   1
 d    1 1.00
                     1                   1

25 0
 s    3 1.00
             13.010701   0.033485484812989
             1.9622572    0.23472187088125
            0.44453796    0.81377028525955
 s    1 1.00
            0.12194962                   1
 p    1 1.00
                   0.8                   1

26 0
 s    3 1.00
             13.010701   0.033485484812989
             1.9622572    0.23472187088125
            0.44453796    0.81377028525955
 s    1 1.00
            0.12194962                   1
 p    1 1.00
                   0.8                   1

27 0
 s    3 1.00
             13.010701   0.033485484812989
             1.9622572    0.23472187088125
            0.44453796    0.81377028525955
 s    1 1.00
            0.12194962                   1
 p    1 1.00
                   0.8                   1

28 0
 s    5 1.00
          1712.8415853  -0.0054477995804909
          257.64812677  -0.040627174632423
          58.458245853   -0.18111962250584
          16.198367905   -0.46843975563173
          5.0052600809   -0.44616846289231
 s    1 1.00
         0.58731856571                   1
 s    1 1.00
         0.18764592253                   1
 p    3 1.00
          13.571470233  -0.058848116969522
          2.9257372874   -0.32024624762471
         0.79927750754   -0.75328226520436
 p    1 1.00
         0.21954348034                   1
 d    1 1.00
                     1                   1

29 0
 s    3 1.00
             13.010701   0.033485484812989
             1.9622572    0.23472187088125
            0.44453796    0.81377028525955
 s    1 1.00
            0.12194962                   1
 p    1 1.00
                   0.8                   1

30 0
 s    3 1.00
             13.010701   0.033485484812989
             1.9622572    0.23472187088125
            0.44453796    0.81377028525955
 s    1 1.00
            0.12194962                   1
 p    1 1.00
                   0.8                   1

31 0
 s    3 1.00
             13.010701   0.033485484812989
             1.9622572    0.23472187088125
            0.44453796    0.81377028525955
 s    1 1.00
            0.12194962                   1
 p    1 1.00
                   0.8                   1

32 0
 s    5 1.00
          1712.8415853  -0.0054477995804909
          257.64812677  -0.040627174632423
          58.458245853   -0.18111962250584
          16.198367905   -0.46843975563173
          5.0052600809   -0.44616846289231
 s    1 1.00
         0.58731856571                   1
 s    1 1.00
         0.18764592253                   1
 p    3 1.00
          13.571470233  -0.058848116969522
          2.9257372874   -0.32024624762471
         0.79927750754   -0.75328226520436
 p    1 1.00
         0.21954348034                   1
 d    1 1.00
                     1                   1

33 0
 s    3 1.00
             13.010701   0.033485484812989
             1.9622572    0.23472187088125
            0.44453796    0.81377028525955
 s    1 1.00
            0.12194962                   1
 p    1 1.00
                   0.8                   1

34 0
 s    3 1.00
             13.010701   0.033485484812989
             1.9622572    0.23472187088125
            0.44453796    0.81377028525955
 s    1 1.00
            0.12194962                   1
 p    1 1.00
                   0.8                   1

35 0
 s    3 1.00
             13.010701   0.033485484812989
             1.9622572    0.23472187088125
            0.44453796    0.81377028525955
 s    1 1.00
            0.12194962                   1
 p    1 1.00
                   0.8                   1

36 0
 s    5 1.00
          1712.8415853  -0.0054477995804909
          257.64812677  -0.040627174632423
          58.458245853   -0.18111962250584
          16.198367905   -0.46843975563173
          5.0052600809   -0.44616846289231
 s    1 1.00
         0.58731856571                   1
 s    1 1.00
         0.18764592253                   1
 p    3 1.00
          13.571470233  -0.058848116969522
          2.9257372874   -0.32024624762471
         0.79927750754   -0.75328226520436
 p    1 1.00
         0.21954348034                   1
 d    1 1.00
                     1                   1

37 0
 s    3 1.00
             13.010701   0.033485484812989
             1.9622572    0.23472187088125
            0.44453796    0.81377028525955
 s    1 1.00
            0.12194962                   1
 p    1 1.00
                   0.8                   1

38 0
 s    3 1.00
             13.010701   0.033485484812989
             1.9622572    0.23472187088125
            0.44453796    0.81377028525955
 s    1 1.00
            0.12194962                   1
 p    1 1.00
                   0.8                   1

39 0
 s    3 1.00
             13.010701   0.033485484812989
             1.9622572    0.23472187088125
            0.44453796    0.81377028525955
 s    1 1.00
            0.12194962                   1
 p    1 1.00
                   0.8                   1

40 0
 s    5 1.00
          1712.8415853  -0.0054477995804909
          257.64812677  -0.040627174632423
          58.458245853   -0.18111962250584
          16.198367905   -0.46843975563173
          5.0052600809   -0.44616846289231
 s    1 1.00
         0.58731856571                   1
 s    1 1.00
         0.18764592253                   1
 p    3 1.00
          13.571470233  -0.058848116969522
          2.9257372874   -0.32024624762471
         0.79927750754   -0.75328226520436
 p    1 1.00
         0.21954348034                   1
 d    1 1.00
                     1                   1

41 0
 s    3 1.00
             13.010701   0.033485484812989
             1.9622572    0.23472187088125
            0.44453796    0.81377028525955
 s    1 1.00
            0.12194962                   1
 p    1 1.00
                   0.8                   1

42 0
 s    3 1.00
             13.010701   0.033485484812989
             1.9622572    0.23472187088125
            0.44453796    0.81377028525955
 s    1 1.00
            0.12194962                   1
 p    1 1.00
                   0.8                   1

43 0
 s    3 1.00
             13.010701   0.033485484812989
             1.9622572    0.23472187088125
            0.44453796    0.81377028525955
 s    1 1.00
            0.12194962                   1
 p    1 1.00
                   0.8                   1

[5d]
[7f]
[9g]

[MO]
 Sym= A
 Ene=               0
 Spin= Alpha
 Occup=    1.00000
   1     0.012340147419075
   2    -0.026695724971861
   3      0.22835604245998
   4    -0.006178141515487
   5    -0.010053562287172
   6     0.027179851838397
   7     -0.04388321441137
   8    -0.031807521528008
   9     -0.14771449129728
  10      0.23742791726415
  11      0.17275687013849
  12     0.002032451337835
  13    -0.003003919255474
  14    -0.003631054552214
  15      0.05014458496713
  16    -0.016343939134908
  17    -0.082812786594181
  18    -0.044322868090317
  19    -0.0091411905206351
  20     0.036701203612344
  21    -0.011797314004667
  22    -0.061639353349755
  23    -0.032047386892325
  24    -0.0064887416731034
  25    6.8875083249005e-05
  26    0.00029859159900106
  27    -1.0031195691451e-05
  28    0.00014237715802513
  29    0.00057193817045211
  30    -0.00066700123814457
  31    0.00012863773827146
  32    -0.012349455873794
  33     0.026717968676377
  34     -0.22851521516962
  35    0.0066266896348517
  36     0.010158391622427
  37     0.027167276857327
  38    -0.043865823328966
  39    -0.031792450990321
  40     -0.14768967321008
  41      0.23739713188792
  42      0.17272564976693
  43    0.0020676598366083
  44    -0.0030454742811916
  45    -0.0035712393918971
  46    -0.049334441091343
  47     0.015381812058057
  48     0.082354318232337
  49     0.043082537538072
  50    0.0079697431550821
  51    -0.035688040301478
  52     0.011608058753776
  53     0.059798400899356
  54     0.031328380225979
  55     0.006483605515873
  56    7.2806259625913e-05
  57    0.00029034921603617
  58    -1.1964700755884e-05
  59    0.00014195922014046
  60    0.00056940163440523
  61    -0.00065792804429346
  62    0.00012825904421643
  63    -0.00091995742437296
  64    -0.0024176781233602
  65    -0.0013634576114169
  66    0.0084821352247587
  67      -0.0132076734035
  68    -0.0099498840198755
  69    0.0098209786070601
  70    -0.015229854196352
  71    -0.011316626642323
  72    7.730255352191e-06
  73    -1.120762305007e-05
  74    3.2092841593337e-07
  75    -1.227706088154e-05
  76    -1.5113103837933e-05
  77     -0.02007686022627
  78    -0.074148430988909
  79    -0.045623402760369
  80     -0.04865716156461
  81    -0.053599790910939
  82    -0.039623453594862
  83      0.03197092647636
  84     0.036726606027487
  85     0.026636263064157
  86    -0.00022740618733435
  87    0.00094345792595386
  88    -0.00071842845176498
  89    -0.0010628802842144
  90    0.00058635910581181
  91    -0.024280502070684
  92    0.0025047098401182
  93     0.004440979854783
  94    0.0012449601252664
  95    4.4148585775292e-06
  96    0.0040086793067331
  97    0.0084437508805345
  98    0.0017957576479543
  99    0.0012537367095559
 100    0.0008466183423932
 101     0.017480803645847
 102     0.010846439208603
 103    0.0016966496040278
 104    -0.00039856726420779
 105    0.00062086865150114
 106     0.040185639024205
 107     0.079265833722037
 108     0.083770444332907
 109     0.020876836477607
 110      0.07761194347021
 111     -0.14933578909331
 112    -0.010616410044145
 113    -0.061607435756307
 114      0.10344361163044
 115    -0.00083090678620858
 116    -0.00021435153389203
 117    -0.0010938660766312
 118    -5.8261843024984e-05
 119    -0.0010737136190743
 120     0.006548417472367
 121    -0.0078955974463605
 122    -0.00037919232442025
 123    -0.002918265656336
 124    0.0048330977685957
 125    -0.047441084420002
 126    -0.013727074150331
 127    -0.0013239496335239
 128    -0.0049810644812809
 129    -0.001355092030364
 130    -0.027513726952524
 131    -0.010640391826467
 132    0.0026071457424038
 133    -0.00040322541405551
 134    0.0044337842740721
 135     0.038564959801028
 136     0.074771966392548
 137     0.080521472505245
 138    0.0066874111428928
 139     -0.12171037105045
 140       0.1120432073256
 141    -0.0006167022454763
 142     0.082695649389061
 143    -0.083746003030075
 144    0.00062154269772742
 145    -0.00039725177727509
 146    -0.0007323443719644
 147    0.0011310390900283
 148    0.00017710025304789
 149    -0.048452039151598
 150    -0.013241287606458
 151    0.00059772898302319
 152    -0.0028409612233124
 153    -0.0045371898338053
 154    -0.0025236965023586
 155    -0.0080735152236605
 156    -0.00085364130449487
 157    0.0040723114449703
 158    -0.0034924316768973
 159    -0.020378437009153
 160    -0.010244646390518
 161      0.00183114910002
 162    0.0045896673937171
 163    -0.0015527696137666
 164    -0.020850580595571
 165    -0.076199249799859
 166    -0.048614143263933
 167     0.083641525924919
 168    -0.0025371089776028
 169    0.0056399621182816
 170    -0.057502378807421
 171     0.002191505926208
 172    -0.0034463252493625
 173    -0.00093383600669615
 174    0.00023287860892005
 175    -0.0010980245561681
 176    4.4232865538414e-05
 177    -0.00048733734906277
 178    0.00045850466645871
 179     0.007117050276804
 180    -0.0025399096562285
 181    -0.00056101230446532
 182    -0.00022377689570388
 183    -0.021831174722762
 184    0.0028038166696916
 185    -0.0033576980171233
 186    -0.0013329224822639
 187    -0.0026312917692919
 188     0.017995596848269
 189     0.011803716281846
 190    -0.00094147793853642
 191    -0.0015278582291201
 192    -0.00053262215584055
 193    -0.025386390377219
 194    -0.099079495441242
 195    -0.066204452913467
 196    -0.028699626258437
 197     0.045532161683996
 198     0.033453325280621
 199     0.023643090238132
 200     -0.03953432268575
 201    -0.027680069568474
 202    0.00022017082387387
 203    3.6876081581376e-05
 204    -0.00053251330580416
 205    -0.0001360160200071
 206    9.855967354004e-05
 207    -0.010723223054827
 208    0.0047032768575236
 209    0.0014617655782549
 210    -0.00027333652822142
 211    -0.0028108649246946
 212    -0.012806354958076
 213    0.0037459858096294
 214    -2.0216664266048e-05
 215    -0.003169349507939
 216    -0.0014513777756647
 217    -0.012489515572433
 218    0.0042340004597909
 219    0.0022369891114365
 220    -0.0025621929763032
 221    0.00024793620503813
 222       0.0195379622413
 223     0.072839090448117
 224     0.044473318856396
 225    -0.046701309107386
 226    -0.053319543152712
 227    -0.039029501140408
 228     0.030486902672483
 229      0.03656656845062
 230     0.026129862602841
 231    0.0003914961902243
 232    -0.00094132476323458
 233    0.0005529587159474
 234    0.0011201075075238
 235    -0.00048169259869048
 236    -0.018403111019211
 237    -0.010973342773278
 238    0.0016656064617629
 239    -0.00050518006763848
 240    0.00052327498026736
 241    -0.002256604415754
 242    -0.0079908033746913
 243    0.0017986753292347
 244    0.0012477730619239
 245    0.0010004169413591
 246     0.023959320128871
 247    -0.0025127957230402
 248    0.0043133055140004
 249    0.0013404455129581
 250    -0.00011081119654849
 251    -0.038898888797449
 252    -0.076065295856764
 253    -0.080827801810671
 254     0.020726849088635
 255     0.074477999025446
 256     -0.14524884672251
 257    -0.010507451698986
 258    -0.059355593629059
 259      0.10068148908577
 260    0.00087716508197462
 261    8.6775845556687e-05
 262    0.0011887974050605
 263    -8.2352302622795e-05
 264    0.00091212179430771
 265     0.047871130779567
 266     0.013576848852404
 267    -0.00090333978963294
 268    -0.0049294276234993
 269    -0.0015613468538072
 270    -0.0055226494323388
 271    0.0072310786699351
 272    -0.00044605999918668
 273    -0.0027308771131315
 274    0.0047311229277186
 275     0.024831757494659
 276     0.010026810463488
 277    0.0022201790006106
 278    -0.00032678702781875
 279    0.0045007213799323
 280     0.020344053640481
 281     0.074974594596175
 282     0.047504867232068
 283     0.082030831685722
 284    -0.0034155918797084
 285     0.004914825082879
 286    -0.056226369883869
 287    0.0028441336009411
 288    -0.0029231366203182
 289    0.0010117977678041
 290    -0.00020632918170657
 291    0.00093890180403153
 292    -3.9879264186833e-05
 293    0.00056934518399959
 294     0.021455460991052
 295    -0.0027513603148076
 296    -0.0032862629342574
 297    -0.0012013185896817
 298    -0.0026331103640067
 299    0.00092697708515598
 300    -0.0068080250672004
 301    -0.0025864968624653
 302    -0.00061901111027782
 303    -0.00013896114579773
 304    -0.018510170189798
 305    -0.011963335643201
 306    -0.00084914164535287
 307    -0.0015355040560328
 308    -0.00055680857446339
 309    -0.037283494394396
 310    -0.071559931391346
 311    -0.077725048708623
 312    0.0071145500241602
 313     -0.11852334941879
 314      0.10808270566297
 315    -0.0011040761157325
 316      0.08050907925788
 317    -0.080910688812247
 318    -0.00064015826129803
 319    0.00027764105898722
 320    0.00072023729987862
 321    -0.0011081167930135
 322    -0.00034005240675477
 323     0.048336201444336
 324     0.012897548849265
 325    0.00094403218159144
 326    -0.0028874042544144
 327    -0.0043503206971659
 328      0.01802807476757
 329    0.0098064156178574
 330     0.001514112058189
 331    0.0045466603521411
 332    -0.001586802141757
 333    0.0036855863126345
 334    0.0077915467044407
 335    -0.0010134219573535
 336    0.0039430298078369
 337    -0.0033059454863831
 338     0.024603557387248
 339     0.097140443846235
 340     0.064421742349949
 341    -0.027305817292375
 342     0.043335790956645
 343     0.031843540521584
 344     0.022695486590085
 345    -0.037954438922478