[Molden Format]
made by pyscf v[2.1.1]
[Atoms] (AU)
Cr   1   24     1.56143912275337    -2.46507591990239    -1.82404491365355
Cr   2   24    -1.56139565905251     2.46513072196000     1.82399011159594
O   3   8     0.00002078698737     0.00002834589187    -0.00002645616574
N   4   7     5.12832174930954    -1.10581670549011    -0.60767356069801
H   5   1     6.65216855026694    -1.66292686427314    -1.66487895135981
H   6   1     5.63710405218294    -1.59213394419468     1.18765885421890
H   7   1     5.20084187906585     0.81566059741989    -0.65509245834172
N   8   7     1.71230729763415    -0.02251608677419    -4.99594076510539
H   9   1     0.29795878723855     1.27247165241550    -4.90823668593820
H   10   1     1.50271021425414    -0.85583806455427    -6.73026148236459
H   11   1     3.34039895052705     0.99863710888315    -5.18656310846864
N   12   7     1.41057094787259    -4.90763575303059     1.34785282752440
H   13   1     1.64193389675534    -6.79355407945465     0.97314659318890
H   14   1    -0.29048681014202    -4.81040367474334     2.24006056107205
H   15   1     2.72468082571676    -4.56691435331926     2.71738081369757
N   16   7    -2.00544350380280    -3.82433513431467    -3.04041437688297
H   17   1    -2.87205678671934    -5.05516478184926    -1.83221042023780
H   18   1    -2.03637832046193    -4.76397121413665    -4.73247136936628
H   19   1    -3.24475802163669    -2.37551046050250    -3.28123540501917
N   20   7     3.37923471211299    -5.33493873459111    -3.94755661599306
H   21   1     4.17102617885350    -4.76109883042731    -5.61685374703210
H   22   1     2.26176595533881    -6.82326057413281    -4.47610923358166
H   23   1     4.85383336053810    -6.19899521806112    -3.03922195969837
N   24   7    -5.12827828560868     1.10587339727385     0.60762064836653
H   25   1    -5.15408816501799    -0.81544705836782     0.54662784797006
H   26   1    -5.69743166898356     1.68113626520945    -1.14337690194197
H   27   1    -6.63528195761783     1.56841410187914     1.73267665553083
N   28   7    -1.71226383393328     0.02257088883181     4.99588785277390
H   29   1    -1.62991523860311     0.86667375415253     6.73575491620870
H   30   1    -0.22416876152653    -1.19157625647512     4.98456461383551
H   31   1    -3.28782110056328    -1.08746368536834     5.11339858210385
N   32   7     2.00548696750367     3.82438993637228     3.04035957482536
H   33   1     2.05186651577887     4.68410571893416     4.77402266739321
H   34   1     2.83712330958063     5.12208376337235     1.87805706574587
H   35   1     3.26582090902109     2.38241174030942     3.19051154350492
N   36   7    -1.41052748417173     4.90769055508820    -1.34790762958202
H   37   1    -1.75003190025884     6.78104976168840    -0.99229329828299
H   38   1    -2.65834387984003     4.49309409198925    -2.75785496783350
H   39   1     0.32278033988471     4.89894112313146    -2.18344058692784
N   40   7    -3.37919124841212     5.33499353664873     3.94750181393545
H   41   1    -2.26357064378777     6.83195331430581     4.45515784003860
H   42   1    -4.15358022727151     4.76963661305810     5.62761006813313
H   43   1    -4.86681766873998     6.18449345978121     3.04686590187224
[GTO]
1 0
 s    6 1.00
          51528.086349  0.0017695545768669
          7737.2103487   0.013556436258096
           1760.374847   0.067162645785071
          496.87706544    0.23295905918518
          161.46520598    0.47040576982722
          55.466352268    0.35733072606876
 s    3 1.00
          107.54732999   -0.10605255446629
          12.408671897    0.62543981484169
          5.0423628826    0.44878820793655
 s    3 1.00
          8.5461640165   -0.21819012081133
          1.3900441221    0.70422525667731
         0.56066602876    0.42488555412558
 s    1 1.00
        0.071483705972                   1
 s    1 1.00
        0.028250687604                   1
 p    5 1.00
          640.48536096  0.0093555063746755
          150.69711194   0.068993338492216
          47.503755296     0.2634118959318
          16.934120165    0.51034501651775
           6.240968059    0.33195512953954
 p    3 1.00
          3.0885463206    0.32917682676976
          1.1791047769    0.55491385190365
         0.43369774432    0.23818412855984
 p    1 1.00
              0.120675                   1
 d    4 1.00
          27.559479426   0.036950140313562
          7.4687020327    0.18821519783039
          2.4345903574    0.44641244239929
         0.78244754808     0.5681617303244
 d    1 1.00
         0.21995774311                   1
 f    1 1.00
                 1.147                   1

2 0
 s    6 1.00
          51528.086349  0.0017695545768669
          7737.2103487   0.013556436258096
           1760.374847   0.067162645785071
          496.87706544    0.23295905918518
          161.46520598    0.47040576982722
          55.466352268    0.35733072606876
 s    3 1.00
          107.54732999   -0.10605255446629
          12.408671897    0.62543981484169
          5.0423628826    0.44878820793655
 s    3 1.00
          8.5461640165   -0.21819012081133
          1.3900441221    0.70422525667731
         0.56066602876    0.42488555412558
 s    1 1.00
        0.071483705972                   1
 s    1 1.00
        0.028250687604                   1
 p    5 1.00
          640.48536096  0.0093555063746755
          150.69711194   0.068993338492216
          47.503755296     0.2634118959318
          16.934120165    0.51034501651775
           6.240968059    0.33195512953954
 p    3 1.00
          3.0885463206    0.32917682676976
          1.1791047769    0.55491385190365
         0.43369774432    0.23818412855984
 p    1 1.00
              0.120675                   1
 d    4 1.00
          27.559479426   0.036950140313562
          7.4687020327    0.18821519783039
          2.4345903574    0.44641244239929
         0.78244754808     0.5681617303244
 d    1 1.00
         0.21995774311                   1
 f    1 1.00
                 1.147                   1

3 0
 s    5 1.00
          2266.1767785  -0.0053893503921743
          340.87010191   -0.04023472138896
          77.363135167   -0.18008184205526
           21.47964494   -0.46828857657651
          6.6589433124   -0.44692617160187
 s    1 1.00
         0.80975975668                   1
 s    1 1.00
         0.25530772234                   1
 p    3 1.00
          17.721504317   0.062630248763161
           3.863550544    0.33331138482352
          1.0480920883    0.74148638308122
 p    1 1.00
         0.27641544411                   1
 d    1 1.00
                   1.2                   1

4 0
 s    5 1.00
          1712.8415853  -0.0054477995804909
          257.64812677  -0.040627174632423
          58.458245853   -0.18111962250584
          16.198367905   -0.46843975563173
          5.0052600809   -0.44616846289231
 s    1 1.00
         0.58731856571                   1
 s    1 1.00
         0.18764592253                   1
 p    3 1.00
          13.571470233  -0.058848116969522
          2.9257372874   -0.32024624762471
         0.79927750754   -0.75328226520436
 p    1 1.00
         0.21954348034                   1
 d    1 1.00
                     1                   1

5 0
 s    3 1.00
             13.010701   0.033485484812989
             1.9622572    0.23472187088125
            0.44453796    0.81377028525955
 s    1 1.00
            0.12194962                   1
 p    1 1.00
                   0.8                   1

6 0
 s    3 1.00
             13.010701   0.033485484812989
             1.9622572    0.23472187088125
            0.44453796    0.81377028525955
 s    1 1.00
            0.12194962                   1
 p    1 1.00
                   0.8                   1

7 0
 s    3 1.00
             13.010701   0.033485484812989
             1.9622572    0.23472187088125
            0.44453796    0.81377028525955
 s    1 1.00
            0.12194962                   1
 p    1 1.00
                   0.8                   1

8 0
 s    5 1.00
          1712.8415853  -0.0054477995804909
          257.64812677  -0.040627174632423
          58.458245853   -0.18111962250584
          16.198367905   -0.46843975563173
          5.0052600809   -0.44616846289231
 s    1 1.00
         0.58731856571                   1
 s    1 1.00
         0.18764592253                   1
 p    3 1.00
          13.571470233  -0.058848116969522
          2.9257372874   -0.32024624762471
         0.79927750754   -0.75328226520436
 p    1 1.00
         0.21954348034                   1
 d    1 1.00
                     1                   1

9 0
 s    3 1.00
             13.010701   0.033485484812989
             1.9622572    0.23472187088125
            0.44453796    0.81377028525955
 s    1 1.00
            0.12194962                   1
 p    1 1.00
                   0.8                   1

10 0
 s    3 1.00
             13.010701   0.033485484812989
             1.9622572    0.23472187088125
            0.44453796    0.81377028525955
 s    1 1.00
            0.12194962                   1
 p    1 1.00
                   0.8                   1

11 0
 s    3 1.00
             13.010701   0.033485484812989
             1.9622572    0.23472187088125
            0.44453796    0.81377028525955
 s    1 1.00
            0.12194962                   1
 p    1 1.00
                   0.8                   1

12 0
 s    5 1.00
          1712.8415853  -0.0054477995804909
          257.64812677  -0.040627174632423
          58.458245853   -0.18111962250584
          16.198367905   -0.46843975563173
          5.0052600809   -0.44616846289231
 s    1 1.00
         0.58731856571                   1
 s    1 1.00
         0.18764592253                   1
 p    3 1.00
          13.571470233  -0.058848116969522
          2.9257372874   -0.32024624762471
         0.79927750754   -0.75328226520436
 p    1 1.00
         0.21954348034                   1
 d    1 1.00
                     1                   1

13 0
 s    3 1.00
             13.010701   0.033485484812989
             1.9622572    0.23472187088125
            0.44453796    0.81377028525955
 s    1 1.00
            0.12194962                   1
 p    1 1.00
                   0.8                   1

14 0
 s    3 1.00
             13.010701   0.033485484812989
             1.9622572    0.23472187088125
            0.44453796    0.81377028525955
 s    1 1.00
            0.12194962                   1
 p    1 1.00
                   0.8                   1

15 0
 s    3 1.00
             13.010701   0.033485484812989
             1.9622572    0.23472187088125
            0.44453796    0.81377028525955
 s    1 1.00
            0.12194962                   1
 p    1 1.00
                   0.8                   1

16 0
 s    5 1.00
          1712.8415853  -0.0054477995804909
          257.64812677  -0.040627174632423
          58.458245853   -0.18111962250584
          16.198367905   -0.46843975563173
          5.0052600809   -0.44616846289231
 s    1 1.00
         0.58731856571                   1
 s    1 1.00
         0.18764592253                   1
 p    3 1.00
          13.571470233  -0.058848116969522
          2.9257372874   -0.32024624762471
         0.79927750754   -0.75328226520436
 p    1 1.00
         0.21954348034                   1
 d    1 1.00
                     1                   1

17 0
 s    3 1.00
             13.010701   0.033485484812989
             1.9622572    0.23472187088125
            0.44453796    0.81377028525955
 s    1 1.00
            0.12194962                   1
 p    1 1.00
                   0.8                   1

18 0
 s    3 1.00
             13.010701   0.033485484812989
             1.9622572    0.23472187088125
            0.44453796    0.81377028525955
 s    1 1.00
            0.12194962                   1
 p    1 1.00
                   0.8                   1

19 0
 s    3 1.00
             13.010701   0.033485484812989
             1.9622572    0.23472187088125
            0.44453796    0.81377028525955
 s    1 1.00
            0.12194962                   1
 p    1 1.00
                   0.8                   1

20 0
 s    5 1.00
          1712.8415853  -0.0054477995804909
          257.64812677  -0.040627174632423
          58.458245853   -0.18111962250584
          16.198367905   -0.46843975563173
          5.0052600809   -0.44616846289231
 s    1 1.00
         0.58731856571                   1
 s    1 1.00
         0.18764592253                   1
 p    3 1.00
          13.571470233  -0.058848116969522
          2.9257372874   -0.32024624762471
         0.79927750754   -0.75328226520436
 p    1 1.00
         0.21954348034                   1
 d    1 1.00
                     1                   1

21 0
 s    3 1.00
             13.010701   0.033485484812989
             1.9622572    0.23472187088125
            0.44453796    0.81377028525955
 s    1 1.00
            0.12194962                   1
 p    1 1.00
                   0.8                   1

22 0
 s    3 1.00
             13.010701   0.033485484812989
             1.9622572    0.23472187088125
            0.44453796    0.81377028525955
 s    1 1.00
            0.12194962                   1
 p    1 1.00
                   0.8                   1

23 0
 s    3 1.00
             13.010701   0.033485484812989
             1.9622572    0.23472187088125
            0.44453796    0.81377028525955
 s    1 1.00
            0.12194962                   1
 p    1 1.00
                   0.8                   1

24 0
 s    5 1.00
          1712.8415853  -0.0054477995804909
          257.64812677  -0.040627174632423
          58.458245853   -0.18111962250584
          16.198367905   -0.46843975563173
          5.0052600809   -0.44616846289231
 s    1 1.00
         0.58731856571                   1
 s    1 1.00
         0.18764592253                   1
 p    3 1.00
          13.571470233  -0.058848116969522
          2.9257372874   -0.32024624762471
         0.79927750754   -0.75328226520436
 p    1 1.00
         0.21954348034                   1
 d    1 1.00
                     1                   1

25 0
 s    3 1.00
             13.010701   0.033485484812989
             1.9622572    0.23472187088125
            0.44453796    0.81377028525955
 s    1 1.00
            0.12194962                   1
 p    1 1.00
                   0.8                   1

26 0
 s    3 1.00
             13.010701   0.033485484812989
             1.9622572    0.23472187088125
            0.44453796    0.81377028525955
 s    1 1.00
            0.12194962                   1
 p    1 1.00
                   0.8                   1

27 0
 s    3 1.00
             13.010701   0.033485484812989
             1.9622572    0.23472187088125
            0.44453796    0.81377028525955
 s    1 1.00
            0.12194962                   1
 p    1 1.00
                   0.8                   1

28 0
 s    5 1.00
          1712.8415853  -0.0054477995804909
          257.64812677  -0.040627174632423
          58.458245853   -0.18111962250584
          16.198367905   -0.46843975563173
          5.0052600809   -0.44616846289231
 s    1 1.00
         0.58731856571                   1
 s    1 1.00
         0.18764592253                   1
 p    3 1.00
          13.571470233  -0.058848116969522
          2.9257372874   -0.32024624762471
         0.79927750754   -0.75328226520436
 p    1 1.00
         0.21954348034                   1
 d    1 1.00
                     1                   1

29 0
 s    3 1.00
             13.010701   0.033485484812989
             1.9622572    0.23472187088125
            0.44453796    0.81377028525955
 s    1 1.00
            0.12194962                   1
 p    1 1.00
                   0.8                   1

30 0
 s    3 1.00
             13.010701   0.033485484812989
             1.9622572    0.23472187088125
            0.44453796    0.81377028525955
 s    1 1.00
            0.12194962                   1
 p    1 1.00
                   0.8                   1

31 0
 s    3 1.00
             13.010701   0.033485484812989
             1.9622572    0.23472187088125
            0.44453796    0.81377028525955
 s    1 1.00
            0.12194962                   1
 p    1 1.00
                   0.8                   1

32 0
 s    5 1.00
          1712.8415853  -0.0054477995804909
          257.64812677  -0.040627174632423
          58.458245853   -0.18111962250584
          16.198367905   -0.46843975563173
          5.0052600809   -0.44616846289231
 s    1 1.00
         0.58731856571                   1
 s    1 1.00
         0.18764592253                   1
 p    3 1.00
          13.571470233  -0.058848116969522
          2.9257372874   -0.32024624762471
         0.79927750754   -0.75328226520436
 p    1 1.00
         0.21954348034                   1
 d    1 1.00
                     1                   1

33 0
 s    3 1.00
             13.010701   0.033485484812989
             1.9622572    0.23472187088125
            0.44453796    0.81377028525955
 s    1 1.00
            0.12194962                   1
 p    1 1.00
                   0.8                   1

34 0
 s    3 1.00
             13.010701   0.033485484812989
             1.9622572    0.23472187088125
            0.44453796    0.81377028525955
 s    1 1.00
            0.12194962                   1
 p    1 1.00
                   0.8                   1

35 0
 s    3 1.00
             13.010701   0.033485484812989
             1.9622572    0.23472187088125
            0.44453796    0.81377028525955
 s    1 1.00
            0.12194962                   1
 p    1 1.00
                   0.8                   1

36 0
 s    5 1.00
          1712.8415853  -0.0054477995804909
          257.64812677  -0.040627174632423
          58.458245853   -0.18111962250584
          16.198367905   -0.46843975563173
          5.0052600809   -0.44616846289231
 s    1 1.00
         0.58731856571                   1
 s    1 1.00
         0.18764592253                   1
 p    3 1.00
          13.571470233  -0.058848116969522
          2.9257372874   -0.32024624762471
         0.79927750754   -0.75328226520436
 p    1 1.00
         0.21954348034                   1
 d    1 1.00
                     1                   1

37 0
 s    3 1.00
             13.010701   0.033485484812989
             1.9622572    0.23472187088125
            0.44453796    0.81377028525955
 s    1 1.00
            0.12194962                   1
 p    1 1.00
                   0.8                   1

38 0
 s    3 1.00
             13.010701   0.033485484812989
             1.9622572    0.23472187088125
            0.44453796    0.81377028525955
 s    1 1.00
            0.12194962                   1
 p    1 1.00
                   0.8                   1

39 0
 s    3 1.00
             13.010701   0.033485484812989
             1.9622572    0.23472187088125
            0.44453796    0.81377028525955
 s    1 1.00
            0.12194962                   1
 p    1 1.00
                   0.8                   1

40 0
 s    5 1.00
          1712.8415853  -0.0054477995804909
          257.64812677  -0.040627174632423
          58.458245853   -0.18111962250584
          16.198367905   -0.46843975563173
          5.0052600809   -0.44616846289231
 s    1 1.00
         0.58731856571                   1
 s    1 1.00
         0.18764592253                   1
 p    3 1.00
          13.571470233  -0.058848116969522
          2.9257372874   -0.32024624762471
         0.79927750754   -0.75328226520436
 p    1 1.00
         0.21954348034                   1
 d    1 1.00
                     1                   1

41 0
 s    3 1.00
             13.010701   0.033485484812989
             1.9622572    0.23472187088125
            0.44453796    0.81377028525955
 s    1 1.00
            0.12194962                   1
 p    1 1.00
                   0.8                   1

42 0
 s    3 1.00
             13.010701   0.033485484812989
             1.9622572    0.23472187088125
            0.44453796    0.81377028525955
 s    1 1.00
            0.12194962                   1
 p    1 1.00
                   0.8                   1

43 0
 s    3 1.00
             13.010701   0.033485484812989
             1.9622572    0.23472187088125
            0.44453796    0.81377028525955
 s    1 1.00
            0.12194962                   1
 p    1 1.00
                   0.8                   1

[5d]
[7f]
[9g]

[MO]
 Sym= A
 Ene=               0
 Spin= Alpha
 Occup=    1.00000
   1    2.6476713421215e-06
   2    -2.090424357506e-05
   3    1.3425848624825e-05
   4    -0.00029929043578772
   5    -0.00037771133878496
   6    -3.708258983232e-05
   7    -0.00011624244368478
   8    5.0617749642835e-05
   9    4.2248614882673e-05
  10    0.00043739581340372
  11    -0.0001189587986881
  12    7.271987317804e-05
  13    -0.00013357187126452
  14    0.00024847506604396
  15    -0.066208095793225
  16     0.043006580084882
  17     0.083587826194855
  18      0.07467894787543
  19     0.039854387579715
  20    -0.047909532215454
  21     0.031167000692339
  22     0.060463276942516
  23     0.053779667997689
  24     0.028846066720019
  25    0.00034777778426374
  26    -0.00029115334570831
  27    -0.00011360066735949
  28    0.00019638731503115
  29    -3.9514638817396e-05
  30    0.00037595151387087
  31    -0.00021418015926014
  32    -1.3725790776387e-06
  33    1.960488472304e-05
  34     1.26432949655e-05
  35    0.00027077791259593
  36    0.00037856468000432
  37    0.00011707085531796
  38    7.8878484706903e-05
  39    -6.9610734661246e-05
  40    -0.00043871206597677
  41    -0.00017821403060177
  42    0.00026699976636145
  43    -6.6473558069244e-05
  44    0.00010503855822766
  45    -0.00011835504090305
  46    -0.068093367159809
  47      0.04439191688163
  48     0.085978295496347
  49     0.076927977175036
  50     0.041046048112225
  51    -0.049337259933044
  52     0.032193639132714
  53     0.062145616208979
  54     0.055431133024884
  55     0.029791847366921
  56    -0.00035448021590349
  57    0.00029945658597501
  58    0.00011605005915461
  59    -0.00020397741265273
  60    4.5651253291974e-05
  61    -0.00039175261209849
  62    0.00022010678606175
  63    -9.9420666156293e-05
  64    -0.00024832973408426
  65    -0.00014995919526019
  66    -4.3771290226403e-05
  67    4.6552613630754e-05
  68    4.2087699828215e-05
  69    -7.2181820567067e-05
  70    9.2907811545196e-05
  71    9.0444236979054e-05
  72    -0.00055521952245771
  73    0.0003730425998594
  74    0.00070304590786437
  75    0.00061875595269585
  76    0.00034192763790202
  77     0.042284088969196
  78      0.10656463103884
  79     0.093848212276793
  80       0.1471991363613
  81     0.059235105745149
  82     0.049501352611309
  83     -0.10423094005471
  84    -0.044221875802135
  85    -0.035019025029236
  86    -0.00016710716246467
  87    0.00026356140130382
  88    0.00028206083860529
  89    1.1480551008571e-06
  90    0.00019160445464694
  91       -0.017540326354
  92    -0.010692259284908
  93    -0.0028334421562347
  94    -0.0028203569678754
  95    -0.0030106983339934
  96    -0.017257501420576
  97    -0.013222273694396
  98    -0.0042051235937952
  99    -0.0022945042238381
 100    0.00058436940633326
 101    -0.011901187706667
 102    -0.013979058921188
 103    -0.0050346707883948
 104    -0.0002076411198589
 105    -0.0013744837973106
 106    -0.042068224495491
 107     -0.10618643603843
 108    -0.093215734541356
 109    -0.0031525760470285
 110     -0.10347428744535
 111      0.13018908489831
 112    -1.268659073709e-05
 113     0.075828379430772
 114    -0.091948451016351
 115    -3.8805555579486e-05
 116    0.00010268640046773
 117    0.00036175053761363
 118    0.00027068702807526
 119    0.00026142433980811
 120     0.010160696282168
 121     0.014005967208768
 122    0.0011860241478154
 123    0.0022442412454534
 124    -0.004800976539077
 125     0.017977426560617
 126     0.011142764871498
 127    0.00024530953532436
 128     0.004464475252504
 129    -0.0019093328601202
 130     0.017641567115886
 131     0.012069348044267
 132    -0.0017390494656452
 133    0.0019812845547047
 134    -0.0039187851369204
 135    -0.042366689341571
 136     -0.10695947998753
 137    -0.094213895970079
 138    0.0089351747102877
 139       0.1009295523014
 140     -0.13185525549456
 141    -0.0082199557653989
 142    -0.071365908269995
 143     0.094356068004094
 144    -0.00034048434598438
 145     0.000208771450152
 146    0.00021153236822332
 147    1.1433668490073e-05
 148    8.8512482507727e-05
 149     0.017351665749414
 150     0.010676920598069
 151    -0.00071767388103504
 152    -0.00085064449718356
 153    0.0048781831035888
 154     0.012099375806425
 155     0.014196546063739
 156    0.0011810771794316
 157    -0.0037722374853066
 158    0.0034188346879384
 159     0.016961045315239
 160     0.013320116287662
 161    -0.0016636534909461
 162    -0.0037423100771853
 163    0.0025510473005587
 164     0.042117130817334
 165      0.10608837028661
 166     0.093400726264753
 167     -0.14927690314263
 168    -0.053293721828663
 169    -0.050242667456054
 170      0.10804806012385
 171     0.035814646868456
 172     0.035487532565519
 173    -0.00034937427812084
 174    0.00012337662637585
 175     0.000128665769991
 176    0.00031974104025897
 177    -1.3497932286843e-05
 178    -0.017161948183809
 179    -0.012179014342456
 180    0.0036607572569119
 181    0.00042451061051541
 182    0.0030089387435654
 183    -0.018116334840633
 184    -0.010968536209261
 185    0.0048697008388468
 186    0.00035304136953112
 187    -0.00059416834546436
 188    -0.010981752770524
 189    -0.013570147009745
 190    0.0038872789944779
 191    0.0030960754136169
 192    0.0018588237040839
 193    -6.720552214471e-05
 194    -0.00028442295790199
 195    -0.00019926353413494
 196    -0.0003057993306182
 197    -0.00011953223719225
 198    0.00027738064254809
 199    0.0012585726910463
 200    0.0013957190113603
 201    -0.001031788190878
 202    -0.00027892209382543
 203    0.00017948461817085
 204    0.00035921787838631
 205    0.00033208203058579
 206    0.00017240997340031
 207    -0.0015259605132926
 208    -0.00079352887657653
 209    0.00035194607187094
 210    -0.00049243920055356
 211    6.1009774139123e-05
 212    0.0013027491371875
 213    0.0008480604370526
 214    -0.00048914793621379
 215    0.00031199592450428
 216    -5.1697926211835e-05
 217    0.00010228446423708
 218    0.00018638857332697
 219    0.00035206573447546
 220    0.00040122440696938
 221    -0.00016895705167614
 222     0.043647478725192
 223      0.11024866006377
 224      0.09691534138909
 225     -0.15176101479872
 226    -0.061421856389615
 227    -0.050990044515556
 228      0.10727955969186
 229     0.046161644400355
 230     0.036104298883961
 231    -0.00018498302298638
 232    0.00026888372942461
 233    0.00031122040239563
 234    8.3655733733526e-06
 235    0.00018809647124313
 236    -0.011704253256519
 237    -0.014648039068503
 238    0.0052688583987695
 239    0.00029467015966123
 240    0.0013205419979882
 241    -0.018098681392844
 242    -0.013568483177225
 243    0.0042306581683265
 244    0.0025030697161864
 245    -0.00059611008509594
 246    -0.017925979995668
 247     -0.01122464204271
 248    0.0029395758081821
 249    0.0027788054964084
 250    0.0031647444205254
 251    -0.043245093317208
 252     -0.10896055392282
 253     -0.09576283929159
 254    0.0033721680483486
 255      0.10614411690312
 256     -0.13402584824624
 257    -0.00015419783966707
 258    -0.077694761141011
 259     0.094775280158122
 260    -2.9839955676794e-05
 261    9.4896176960613e-05
 262    0.00037302563811827
 263    0.00025955193082304
 264    0.00025796231442318
 265      0.01865139438872
 266     0.011342999505214
 267    -8.879432567419e-05
 268    -0.0046376817786312
 269    0.0019484766260468
 270     0.010869502764376
 271      0.01416357791505
 272    -0.0012983678053516
 273    -0.0023023991335268
 274    0.0048386459034899
 275     0.018004582976791
 276     0.012337238051926
 277    0.0016806912378211
 278    -0.0019247038510205
 279    0.0041514641730721
 280     0.043365025095738
 281      0.10944800101423
 282     0.096155660866628
 283      0.15400105105491
 284     0.054559600268082
 285     0.051552349354493
 286     -0.11142060841329
 287    -0.036422253352872
 288    -0.036263397990417
 289    -0.00035803029246244
 290    0.00012349252533906
 291    0.00015825693167232
 292    0.00032711951429445
 293    -7.9757114799974e-06
 294    -0.018494579497923
 295     -0.01138121480094
 296    -0.0049883715527075
 297    -0.00046734564705119
 298    0.00065871639679542
 299    -0.017862063612155
 300    -0.012655504148476
 301    -0.0038023947818836
 302    -0.00031494493999098
 303    -0.0030581537670656
 304    -0.011077815764736
 305     -0.01423114559011
 306    -0.0040299559294302
 307    -0.0031694023737287
 308    -0.001998241752036
 309    -0.043544500646656
 310     -0.10977357135745
 311    -0.096587290158731
 312    -0.008730233989229
 313     -0.10380025149759
 314      0.13557050374198
 315    0.0079023659511121
 316     0.073380339300729
 317    -0.096996072652227
 318    -0.00034584359573533
 319    0.00020618057807851
 320    0.0002105377094145
 321    9.8923340603554e-06
 322    7.2633685530284e-05
 323     0.018041164955051
 324     0.010834475098329
 325    0.00086055597362471
 326    0.00086638064445404
 327    -0.0050209605939419
 328     0.017113327368185
 329     0.013724037302495
 330    0.0015700599236293
 331     0.003955648165196
 332    -0.0026151474709458
 333      0.01293349525715
 334      0.01433229582322
 335    -0.0013046881520707
 336    0.0037696075074314
 337    -0.003523093205381
 338    -1.5220826057558e-05
 339    8.6831114074791e-05
 340    -2.0316583811805e-05
 341    0.00028203965882117
 342    0.00017028582706576
 343    -0.00026085170561727