[Molden Format]
made by pyscf v[2.1.1]
[Atoms] (AU)
Cr   1   24     1.56143912275337    -2.46507591990239    -1.82404491365355
Cr   2   24    -1.56139565905251     2.46513072196000     1.82399011159594
O   3   8     0.00002078698737     0.00002834589187    -0.00002645616574
N   4   7     5.12832174930954    -1.10581670549011    -0.60767356069801
H   5   1     6.65216855026694    -1.66292686427314    -1.66487895135981
H   6   1     5.63710405218294    -1.59213394419468     1.18765885421890
H   7   1     5.20084187906585     0.81566059741989    -0.65509245834172
N   8   7     1.71230729763415    -0.02251608677419    -4.99594076510539
H   9   1     0.29795878723855     1.27247165241550    -4.90823668593820
H   10   1     1.50271021425414    -0.85583806455427    -6.73026148236459
H   11   1     3.34039895052705     0.99863710888315    -5.18656310846864
N   12   7     1.41057094787259    -4.90763575303059     1.34785282752440
H   13   1     1.64193389675534    -6.79355407945465     0.97314659318890
H   14   1    -0.29048681014202    -4.81040367474334     2.24006056107205
H   15   1     2.72468082571676    -4.56691435331926     2.71738081369757
N   16   7    -2.00544350380280    -3.82433513431467    -3.04041437688297
H   17   1    -2.87205678671934    -5.05516478184926    -1.83221042023780
H   18   1    -2.03637832046193    -4.76397121413665    -4.73247136936628
H   19   1    -3.24475802163669    -2.37551046050250    -3.28123540501917
N   20   7     3.37923471211299    -5.33493873459111    -3.94755661599306
H   21   1     4.17102617885350    -4.76109883042731    -5.61685374703210
H   22   1     2.26176595533881    -6.82326057413281    -4.47610923358166
H   23   1     4.85383336053810    -6.19899521806112    -3.03922195969837
N   24   7    -5.12827828560868     1.10587339727385     0.60762064836653
H   25   1    -5.15408816501799    -0.81544705836782     0.54662784797006
H   26   1    -5.69743166898356     1.68113626520945    -1.14337690194197
H   27   1    -6.63528195761783     1.56841410187914     1.73267665553083
N   28   7    -1.71226383393328     0.02257088883181     4.99588785277390
H   29   1    -1.62991523860311     0.86667375415253     6.73575491620870
H   30   1    -0.22416876152653    -1.19157625647512     4.98456461383551
H   31   1    -3.28782110056328    -1.08746368536834     5.11339858210385
N   32   7     2.00548696750367     3.82438993637228     3.04035957482536
H   33   1     2.05186651577887     4.68410571893416     4.77402266739321
H   34   1     2.83712330958063     5.12208376337235     1.87805706574587
H   35   1     3.26582090902109     2.38241174030942     3.19051154350492
N   36   7    -1.41052748417173     4.90769055508820    -1.34790762958202
H   37   1    -1.75003190025884     6.78104976168840    -0.99229329828299
H   38   1    -2.65834387984003     4.49309409198925    -2.75785496783350
H   39   1     0.32278033988471     4.89894112313146    -2.18344058692784
N   40   7    -3.37919124841212     5.33499353664873     3.94750181393545
H   41   1    -2.26357064378777     6.83195331430581     4.45515784003860
H   42   1    -4.15358022727151     4.76963661305810     5.62761006813313
H   43   1    -4.86681766873998     6.18449345978121     3.04686590187224
[GTO]
1 0
 s    6 1.00
          51528.086349  0.0017695545768669
          7737.2103487   0.013556436258096
           1760.374847   0.067162645785071
          496.87706544    0.23295905918518
          161.46520598    0.47040576982722
          55.466352268    0.35733072606876
 s    3 1.00
          107.54732999   -0.10605255446629
          12.408671897    0.62543981484169
          5.0423628826    0.44878820793655
 s    3 1.00
          8.5461640165   -0.21819012081133
          1.3900441221    0.70422525667731
         0.56066602876    0.42488555412558
 s    1 1.00
        0.071483705972                   1
 s    1 1.00
        0.028250687604                   1
 p    5 1.00
          640.48536096  0.0093555063746755
          150.69711194   0.068993338492216
          47.503755296     0.2634118959318
          16.934120165    0.51034501651775
           6.240968059    0.33195512953954
 p    3 1.00
          3.0885463206    0.32917682676976
          1.1791047769    0.55491385190365
         0.43369774432    0.23818412855984
 p    1 1.00
              0.120675                   1
 d    4 1.00
          27.559479426   0.036950140313562
          7.4687020327    0.18821519783039
          2.4345903574    0.44641244239929
         0.78244754808     0.5681617303244
 d    1 1.00
         0.21995774311                   1
 f    1 1.00
                 1.147                   1

2 0
 s    6 1.00
          51528.086349  0.0017695545768669
          7737.2103487   0.013556436258096
           1760.374847   0.067162645785071
          496.87706544    0.23295905918518
          161.46520598    0.47040576982722
          55.466352268    0.35733072606876
 s    3 1.00
          107.54732999   -0.10605255446629
          12.408671897    0.62543981484169
          5.0423628826    0.44878820793655
 s    3 1.00
          8.5461640165   -0.21819012081133
          1.3900441221    0.70422525667731
         0.56066602876    0.42488555412558
 s    1 1.00
        0.071483705972                   1
 s    1 1.00
        0.028250687604                   1
 p    5 1.00
          640.48536096  0.0093555063746755
          150.69711194   0.068993338492216
          47.503755296     0.2634118959318
          16.934120165    0.51034501651775
           6.240968059    0.33195512953954
 p    3 1.00
          3.0885463206    0.32917682676976
          1.1791047769    0.55491385190365
         0.43369774432    0.23818412855984
 p    1 1.00
              0.120675                   1
 d    4 1.00
          27.559479426   0.036950140313562
          7.4687020327    0.18821519783039
          2.4345903574    0.44641244239929
         0.78244754808     0.5681617303244
 d    1 1.00
         0.21995774311                   1
 f    1 1.00
                 1.147                   1

3 0
 s    5 1.00
          2266.1767785  -0.0053893503921743
          340.87010191   -0.04023472138896
          77.363135167   -0.18008184205526
           21.47964494   -0.46828857657651
          6.6589433124   -0.44692617160187
 s    1 1.00
         0.80975975668                   1
 s    1 1.00
         0.25530772234                   1
 p    3 1.00
          17.721504317   0.062630248763161
           3.863550544    0.33331138482352
          1.0480920883    0.74148638308122
 p    1 1.00
         0.27641544411                   1
 d    1 1.00
                   1.2                   1

4 0
 s    5 1.00
          1712.8415853  -0.0054477995804909
          257.64812677  -0.040627174632423
          58.458245853   -0.18111962250584
          16.198367905   -0.46843975563173
          5.0052600809   -0.44616846289231
 s    1 1.00
         0.58731856571                   1
 s    1 1.00
         0.18764592253                   1
 p    3 1.00
          13.571470233  -0.058848116969522
          2.9257372874   -0.32024624762471
         0.79927750754   -0.75328226520436
 p    1 1.00
         0.21954348034                   1
 d    1 1.00
                     1                   1

5 0
 s    3 1.00
             13.010701   0.033485484812989
             1.9622572    0.23472187088125
            0.44453796    0.81377028525955
 s    1 1.00
            0.12194962                   1
 p    1 1.00
                   0.8                   1

6 0
 s    3 1.00
             13.010701   0.033485484812989
             1.9622572    0.23472187088125
            0.44453796    0.81377028525955
 s    1 1.00
            0.12194962                   1
 p    1 1.00
                   0.8                   1

7 0
 s    3 1.00
             13.010701   0.033485484812989
             1.9622572    0.23472187088125
            0.44453796    0.81377028525955
 s    1 1.00
            0.12194962                   1
 p    1 1.00
                   0.8                   1

8 0
 s    5 1.00
          1712.8415853  -0.0054477995804909
          257.64812677  -0.040627174632423
          58.458245853   -0.18111962250584
          16.198367905   -0.46843975563173
          5.0052600809   -0.44616846289231
 s    1 1.00
         0.58731856571                   1
 s    1 1.00
         0.18764592253                   1
 p    3 1.00
          13.571470233  -0.058848116969522
          2.9257372874   -0.32024624762471
         0.79927750754   -0.75328226520436
 p    1 1.00
         0.21954348034                   1
 d    1 1.00
                     1                   1

9 0
 s    3 1.00
             13.010701   0.033485484812989
             1.9622572    0.23472187088125
            0.44453796    0.81377028525955
 s    1 1.00
            0.12194962                   1
 p    1 1.00
                   0.8                   1

10 0
 s    3 1.00
             13.010701   0.033485484812989
             1.9622572    0.23472187088125
            0.44453796    0.81377028525955
 s    1 1.00
            0.12194962                   1
 p    1 1.00
                   0.8                   1

11 0
 s    3 1.00
             13.010701   0.033485484812989
             1.9622572    0.23472187088125
            0.44453796    0.81377028525955
 s    1 1.00
            0.12194962                   1
 p    1 1.00
                   0.8                   1

12 0
 s    5 1.00
          1712.8415853  -0.0054477995804909
          257.64812677  -0.040627174632423
          58.458245853   -0.18111962250584
          16.198367905   -0.46843975563173
          5.0052600809   -0.44616846289231
 s    1 1.00
         0.58731856571                   1
 s    1 1.00
         0.18764592253                   1
 p    3 1.00
          13.571470233  -0.058848116969522
          2.9257372874   -0.32024624762471
         0.79927750754   -0.75328226520436
 p    1 1.00
         0.21954348034                   1
 d    1 1.00
                     1                   1

13 0
 s    3 1.00
             13.010701   0.033485484812989
             1.9622572    0.23472187088125
            0.44453796    0.81377028525955
 s    1 1.00
            0.12194962                   1
 p    1 1.00
                   0.8                   1

14 0
 s    3 1.00
             13.010701   0.033485484812989
             1.9622572    0.23472187088125
            0.44453796    0.81377028525955
 s    1 1.00
            0.12194962                   1
 p    1 1.00
                   0.8                   1

15 0
 s    3 1.00
             13.010701   0.033485484812989
             1.9622572    0.23472187088125
            0.44453796    0.81377028525955
 s    1 1.00
            0.12194962                   1
 p    1 1.00
                   0.8                   1

16 0
 s    5 1.00
          1712.8415853  -0.0054477995804909
          257.64812677  -0.040627174632423
          58.458245853   -0.18111962250584
          16.198367905   -0.46843975563173
          5.0052600809   -0.44616846289231
 s    1 1.00
         0.58731856571                   1
 s    1 1.00
         0.18764592253                   1
 p    3 1.00
          13.571470233  -0.058848116969522
          2.9257372874   -0.32024624762471
         0.79927750754   -0.75328226520436
 p    1 1.00
         0.21954348034                   1
 d    1 1.00
                     1                   1

17 0
 s    3 1.00
             13.010701   0.033485484812989
             1.9622572    0.23472187088125
            0.44453796    0.81377028525955
 s    1 1.00
            0.12194962                   1
 p    1 1.00
                   0.8                   1

18 0
 s    3 1.00
             13.010701   0.033485484812989
             1.9622572    0.23472187088125
            0.44453796    0.81377028525955
 s    1 1.00
            0.12194962                   1
 p    1 1.00
                   0.8                   1

19 0
 s    3 1.00
             13.010701   0.033485484812989
             1.9622572    0.23472187088125
            0.44453796    0.81377028525955
 s    1 1.00
            0.12194962                   1
 p    1 1.00
                   0.8                   1

20 0
 s    5 1.00
          1712.8415853  -0.0054477995804909
          257.64812677  -0.040627174632423
          58.458245853   -0.18111962250584
          16.198367905   -0.46843975563173
          5.0052600809   -0.44616846289231
 s    1 1.00
         0.58731856571                   1
 s    1 1.00
         0.18764592253                   1
 p    3 1.00
          13.571470233  -0.058848116969522
          2.9257372874   -0.32024624762471
         0.79927750754   -0.75328226520436
 p    1 1.00
         0.21954348034                   1
 d    1 1.00
                     1                   1

21 0
 s    3 1.00
             13.010701   0.033485484812989
             1.9622572    0.23472187088125
            0.44453796    0.81377028525955
 s    1 1.00
            0.12194962                   1
 p    1 1.00
                   0.8                   1

22 0
 s    3 1.00
             13.010701   0.033485484812989
             1.9622572    0.23472187088125
            0.44453796    0.81377028525955
 s    1 1.00
            0.12194962                   1
 p    1 1.00
                   0.8                   1

23 0
 s    3 1.00
             13.010701   0.033485484812989
             1.9622572    0.23472187088125
            0.44453796    0.81377028525955
 s    1 1.00
            0.12194962                   1
 p    1 1.00
                   0.8                   1

24 0
 s    5 1.00
          1712.8415853  -0.0054477995804909
          257.64812677  -0.040627174632423
          58.458245853   -0.18111962250584
          16.198367905   -0.46843975563173
          5.0052600809   -0.44616846289231
 s    1 1.00
         0.58731856571                   1
 s    1 1.00
         0.18764592253                   1
 p    3 1.00
          13.571470233  -0.058848116969522
          2.9257372874   -0.32024624762471
         0.79927750754   -0.75328226520436
 p    1 1.00
         0.21954348034                   1
 d    1 1.00
                     1                   1

25 0
 s    3 1.00
             13.010701   0.033485484812989
             1.9622572    0.23472187088125
            0.44453796    0.81377028525955
 s    1 1.00
            0.12194962                   1
 p    1 1.00
                   0.8                   1

26 0
 s    3 1.00
             13.010701   0.033485484812989
             1.9622572    0.23472187088125
            0.44453796    0.81377028525955
 s    1 1.00
            0.12194962                   1
 p    1 1.00
                   0.8                   1

27 0
 s    3 1.00
             13.010701   0.033485484812989
             1.9622572    0.23472187088125
            0.44453796    0.81377028525955
 s    1 1.00
            0.12194962                   1
 p    1 1.00
                   0.8                   1

28 0
 s    5 1.00
          1712.8415853  -0.0054477995804909
          257.64812677  -0.040627174632423
          58.458245853   -0.18111962250584
          16.198367905   -0.46843975563173
          5.0052600809   -0.44616846289231
 s    1 1.00
         0.58731856571                   1
 s    1 1.00
         0.18764592253                   1
 p    3 1.00
          13.571470233  -0.058848116969522
          2.9257372874   -0.32024624762471
         0.79927750754   -0.75328226520436
 p    1 1.00
         0.21954348034                   1
 d    1 1.00
                     1                   1

29 0
 s    3 1.00
             13.010701   0.033485484812989
             1.9622572    0.23472187088125
            0.44453796    0.81377028525955
 s    1 1.00
            0.12194962                   1
 p    1 1.00
                   0.8                   1

30 0
 s    3 1.00
             13.010701   0.033485484812989
             1.9622572    0.23472187088125
            0.44453796    0.81377028525955
 s    1 1.00
            0.12194962                   1
 p    1 1.00
                   0.8                   1

31 0
 s    3 1.00
             13.010701   0.033485484812989
             1.9622572    0.23472187088125
            0.44453796    0.81377028525955
 s    1 1.00
            0.12194962                   1
 p    1 1.00
                   0.8                   1

32 0
 s    5 1.00
          1712.8415853  -0.0054477995804909
          257.64812677  -0.040627174632423
          58.458245853   -0.18111962250584
          16.198367905   -0.46843975563173
          5.0052600809   -0.44616846289231
 s    1 1.00
         0.58731856571                   1
 s    1 1.00
         0.18764592253                   1
 p    3 1.00
          13.571470233  -0.058848116969522
          2.9257372874   -0.32024624762471
         0.79927750754   -0.75328226520436
 p    1 1.00
         0.21954348034                   1
 d    1 1.00
                     1                   1

33 0
 s    3 1.00
             13.010701   0.033485484812989
             1.9622572    0.23472187088125
            0.44453796    0.81377028525955
 s    1 1.00
            0.12194962                   1
 p    1 1.00
                   0.8                   1

34 0
 s    3 1.00
             13.010701   0.033485484812989
             1.9622572    0.23472187088125
            0.44453796    0.81377028525955
 s    1 1.00
            0.12194962                   1
 p    1 1.00
                   0.8                   1

35 0
 s    3 1.00
             13.010701   0.033485484812989
             1.9622572    0.23472187088125
            0.44453796    0.81377028525955
 s    1 1.00
            0.12194962                   1
 p    1 1.00
                   0.8                   1

36 0
 s    5 1.00
          1712.8415853  -0.0054477995804909
          257.64812677  -0.040627174632423
          58.458245853   -0.18111962250584
          16.198367905   -0.46843975563173
          5.0052600809   -0.44616846289231
 s    1 1.00
         0.58731856571                   1
 s    1 1.00
         0.18764592253                   1
 p    3 1.00
          13.571470233  -0.058848116969522
          2.9257372874   -0.32024624762471
         0.79927750754   -0.75328226520436
 p    1 1.00
         0.21954348034                   1
 d    1 1.00
                     1                   1

37 0
 s    3 1.00
             13.010701   0.033485484812989
             1.9622572    0.23472187088125
            0.44453796    0.81377028525955
 s    1 1.00
            0.12194962                   1
 p    1 1.00
                   0.8                   1

38 0
 s    3 1.00
             13.010701   0.033485484812989
             1.9622572    0.23472187088125
            0.44453796    0.81377028525955
 s    1 1.00
            0.12194962                   1
 p    1 1.00
                   0.8                   1

39 0
 s    3 1.00
             13.010701   0.033485484812989
             1.9622572    0.23472187088125
            0.44453796    0.81377028525955
 s    1 1.00
            0.12194962                   1
 p    1 1.00
                   0.8                   1

40 0
 s    5 1.00
          1712.8415853  -0.0054477995804909
          257.64812677  -0.040627174632423
          58.458245853   -0.18111962250584
          16.198367905   -0.46843975563173
          5.0052600809   -0.44616846289231
 s    1 1.00
         0.58731856571                   1
 s    1 1.00
         0.18764592253                   1
 p    3 1.00
          13.571470233  -0.058848116969522
          2.9257372874   -0.32024624762471
         0.79927750754   -0.75328226520436
 p    1 1.00
         0.21954348034                   1
 d    1 1.00
                     1                   1

41 0
 s    3 1.00
             13.010701   0.033485484812989
             1.9622572    0.23472187088125
            0.44453796    0.81377028525955
 s    1 1.00
            0.12194962                   1
 p    1 1.00
                   0.8                   1

42 0
 s    3 1.00
             13.010701   0.033485484812989
             1.9622572    0.23472187088125
            0.44453796    0.81377028525955
 s    1 1.00
            0.12194962                   1
 p    1 1.00
                   0.8                   1

43 0
 s    3 1.00
             13.010701   0.033485484812989
             1.9622572    0.23472187088125
            0.44453796    0.81377028525955
 s    1 1.00
            0.12194962                   1
 p    1 1.00
                   0.8                   1

[5d]
[7f]
[9g]

[MO]
 Sym= A
 Ene=               0
 Spin= Alpha
 Occup=    1.00000
   1    -0.011716123699324
   2     0.025933051687236
   3     -0.21015341533608
   4     0.042100350098926
   5    0.0053839931077575
   6    -0.024326034788253
   7     0.037436694164574
   8     0.028388910799514
   9      0.12545004944555
  10     -0.19380257804237
  11     -0.14634283677685
  12    -0.0088818218761573
  13     0.014883434812641
  14     0.010611183574344
  15     0.038516518059011
  16    -0.083579971374894
  17     0.021818533194194
  18     -0.08765050191412
  19    -0.099336989011233
  20     0.031483294961531
  21     -0.04637909863754
  22    -0.0077672533927043
  23    -0.054607585776076
  24    -0.052474494011586
  25    -0.002725526137899
  26    -0.00043570823823653
  27    0.0011612042775725
  28    -0.0019320735899488
  29    -0.0038377490942066
  30     0.002474804504133
  31    0.00051951831902541
  32     0.011708304383909
  33    -0.025913163268156
  34      0.21002253325671
  35    -0.041683050043444
  36    -0.0052933545010303
  37    -0.024338623581054
  38     0.037452442414328
  39     0.028403206810461
  40      0.12547563140839
  41     -0.19383210776516
  42     -0.14637417676059
  43    -0.0088118650664213
  44     0.014894871733993
  45     0.010652152043656
  46    -0.036969166634174
  47      0.08349031354482
  48    -0.024700148999219
  49     0.086596816922767
  50     0.099483951821023
  51    -0.030397740730086
  52     0.046351210808316
  53    0.0056239772467109
  54     0.053858776812148
  55     0.052650252539532
  56    -0.0027188064873202
  57    -0.00044539669222457
  58    0.0011577714968557
  59    -0.0019286281339079
  60    -0.0038380958356477
  61    0.0024855522769409
  62    0.00051494679281631
  63    -0.00078946172132564
  64    -0.002061508534213
  65    -0.0011890926907339
  66      0.11244410834503
  67     -0.17706898013468
  68     -0.12963115094327
  69     0.098759199336817
  70      -0.1558408684813
  71     -0.11406720516361
  72    8.2877749113344e-06
  73    2.2574088450819e-05
  74    -4.0755842843294e-05
  75    9.6650554923752e-06
  76    2.8268938551695e-05
  77    -0.039810786191922
  78    -0.085028141434789
  79    -0.083176975531917
  80      -0.1544398220528
  81    -0.039356591689142
  82    -0.035274716715382
  83      0.10774359704929
  84     0.034269219592659
  85     0.028415183795838
  86    8.0341833409113e-05
  87    -0.0013135387817067
  88    7.0045698049579e-05
  89    0.0011971712419206
  90    -0.0010833992959895
  91     0.042170350442195
  92     0.013203952022705
  93    0.00065812245842112
  94    0.0027336077121594
  95    0.0041240692727981
  96     0.017449755664608
  97    0.0092887202601613
  98    0.0045495042845265
  99    0.0018445042827754
 100    -0.0013647730978577
 101    0.0018617765489588
 102    0.0061856923601343
 103    0.0046882828481078
 104    0.00064720215777653
 105    0.0010860668285083
 106     0.021122464303149
 107     0.070100209187522
 108     0.049090952303354
 109    -0.012256253373037
 110     0.069534431713891
 111    -0.049613015618055
 112     0.008993042452747
 113    -0.047684291420495
 114     0.033503362574006
 115    0.0014515338160943
 116    -0.00033005276505525
 117    0.00081254059369789
 118    -0.00011893516499225
 119    0.00064998070132191
 120    -0.018035193758559
 121    -0.014902848473464
 122    -0.0011462775234081
 123    -0.00058619511745862
 124    0.0024479340789947
 125     0.013077910020927
 126    -0.0038700807523353
 127    0.00071486301453901
 128    -0.0019030899770309
 129    0.0027845169084193
 130    -0.001644516703196
 131    -0.0075114678090437
 132    0.00020338528306576
 133    -0.0019713990749511
 134    0.0016067717206357
 135     0.019695069229521
 136     0.066161760671729
 137     0.044618320746432
 138    -0.018789747272128
 139    -0.027118387591313
 140     0.076725461294498
 141     0.013337673068342
 142     0.017889003682253
 143    -0.050887139005975
 144    -0.00075531569640054
 145    0.00033401234071117
 146    0.00032309188327952
 147    -0.0019360109065387
 148    -0.00067873410126865
 149     0.017733847136015
 150    -0.0028051819419417
 151    0.00058731308888962
 152    0.0025701109634505
 153    -0.0025298482983127
 154    -0.017932455242533
 155    -0.012956246855287
 156    -0.0011287438035646
 157     0.001827071498539
 158    -0.0013968037832648
 159    -0.0075855136120603
 160    -0.0097856696091485
 161    0.00075116718434279
 162    0.0012796693090902
 163    -0.0017321548691707
 164    -0.040712713019004
 165    -0.087549057385845
 166    -0.085134451333597
 167      0.13479188489622
 168     0.072414542602066
 169     0.063247096807478
 170     -0.10121924666658
 171    -0.046064142636252
 172    -0.041865000413289
 173    0.0013478555840592
 174    -0.00012780832818425
 175    0.0011915020478454
 176    -0.00091344253394112
 177    0.00067376559504191
 178     0.019532381329617
 179    0.0092499031491103
 180    -0.0031120854972816
 181    -0.00073925799753937
 182    -0.0040305444411132
 183     0.042460725006519
 184     0.013568355486643
 185    -0.0041132557705256
 186    0.00022003074887262
 187    0.0028102120816599
 188    -0.0022568546171565
 189    0.0057051499564793
 190    -0.0039995289825093
 191    -0.0021596497192217
 192    -0.0018641789182642
 193     0.018875027081541
 194      0.07571486625958
 195     0.037731564246574
 196     0.022179459754391
 197    -0.034724706684985
 198    -0.025783536403909
 199    -0.015236819637677
 200      0.02147517782719
 201     0.017557539826916
 202    0.00011160858206174
 203    -0.00062056973325291
 204    0.0005273847843164
 205    -0.0005702855607369
 206    -0.00080533808424055
 207     0.010174574705361
 208    -0.0028734901950644
 209    -0.0015338688374356
 210    0.00086424755556452
 211    0.0019770299022027
 212    0.0077588732193347
 213    -0.0039394536749101
 214    0.00061781479734393
 215    0.0019197886003479
 216    0.0011059618692486
 217    0.0091161313757712
 218    -0.0038005554939796
 219    -0.0020532243956199
 220     0.001353515314843
 221    4.0748193380559e-05
 222     0.039264715063364
 223     0.083625885930221
 224     0.081924262852472
 225     -0.15258554642024
 226    -0.038711176366233
 227    -0.034530358260213
 228      0.10642123956589
 229     0.033873697568209
 230     0.027913527619949
 231    -0.00020582003091324
 232    0.0013081942644006
 233    3.9730256610817e-05
 234    -0.0012279050239479
 235    0.00098783596996443
 236    -0.00048630557476652
 237    -0.0058597583634763
 238    0.0045810055825105
 239    0.0008089559783899
 240    0.0010439739491162
 241    -0.018908981451039
 242    -0.0092710259380545
 243    0.0043825753246159
 244    0.0020082036737347
 245    -0.0015042611932873
 246    -0.041432842450576
 247    -0.012977963456082
 248    0.00071580087501284
 249    0.0024006908505393
 250    0.0042315825341012
 251    -0.019932883967575
 252     -0.06707916565684
 253    -0.046310813842651
 254    -0.012210365037544
 255     0.066246041048977
 256    -0.046076319244654
 257    0.0089005153776602
 258    -0.045306066712765
 259     0.031050944791082
 260    -0.0015032700542232
 261    0.00043424902370089
 262    -0.00090541194606937
 263    0.00023462303484364
 264    -0.00052231657416513
 265    -0.014409991806605
 266    0.0033764924807617
 267    0.00064227978008626
 268    -0.0017715942626897
 269    0.0028200499459199
 270     0.017187078660713
 271     0.014051904071896
 272    -0.001110506227409
 273    -0.00058901825215006
 274     0.002243509964743
 275    0.0024984441316485
 276    0.0075240469239448
 277    0.00021335810192357
 278    -0.0018007756702979
 279    0.0015171334523668
 280      0.04018798111433
 281     0.086206837696033
 282     0.083951839992653
 283      0.13293696040645
 284     0.071751076208273
 285     0.062626699966971
 286    -0.099834645213043
 287    -0.045631292267536
 288    -0.041361143638196
 289    -0.0014095413965107
 290    0.0001053070128068
 291    -0.001058978492308
 292    0.00088781844236953
 293    -0.00073293036432783
 294     -0.04173265260412
 295    -0.013289005992382
 296    -0.0040064935618881
 297    -3.6289780873094e-05
 298    0.0028685525133164
 299    -0.020624913079064
 300    -0.0093026731497567
 301    -0.0030557017304072
 302    -0.00052953494779517
 303    -0.004037147247848
 304    0.0032924589643766
 305    -0.0055734580857377
 306    -0.0039974836079955
 307    -0.0020175882965793
 308    -0.0018279429573924
 309     -0.01850159694639
 310    -0.063128781278233
 311    -0.041874912961103
 312    -0.018094902206159
 313    -0.024311226835492
 314     0.072938458635968
 315     0.012687895544061
 316     0.015940191635031
 317    -0.048226481236662
 318    0.00078482285226216
 319    -0.00020694905450548
 320    -0.00032135743313475
 321    0.0019268776778182
 322    0.00085390548328428
 323    -0.018625145998721
 324    0.0023474146836105
 325    0.00044946763805821
 326    0.0025762860129765
 327    -0.0024299746554615
 328    0.0082809287939777
 329    0.0097938309581001
 330    0.00070162173894126
 331    0.0012659978010426
 332     -0.00155958028048
 333     0.016772450967943
 334     0.012205223825746
 335    -0.0010452889020841
 336    0.0016166609520872
 337    -0.0013585382134158
 338     -0.01955040658972
 339    -0.077364343437796
 340    -0.039295944384386
 341     0.023366274963593
 342    -0.036614993123112
 343    -0.027174971325169
 344    -0.016091959160624
 345     0.022913117662633
 346     0.018600160422743