[Molden Format]
made by pyscf v[2.1.1]
[Atoms] (AU)
Cr   1   24     1.56143912275337    -2.46507591990239    -1.82404491365355
Cr   2   24    -1.56139565905251     2.46513072196000     1.82399011159594
O   3   8     0.00002078698737     0.00002834589187    -0.00002645616574
N   4   7     5.12832174930954    -1.10581670549011    -0.60767356069801
H   5   1     6.65216855026694    -1.66292686427314    -1.66487895135981
H   6   1     5.63710405218294    -1.59213394419468     1.18765885421890
H   7   1     5.20084187906585     0.81566059741989    -0.65509245834172
N   8   7     1.71230729763415    -0.02251608677419    -4.99594076510539
H   9   1     0.29795878723855     1.27247165241550    -4.90823668593820
H   10   1     1.50271021425414    -0.85583806455427    -6.73026148236459
H   11   1     3.34039895052705     0.99863710888315    -5.18656310846864
N   12   7     1.41057094787259    -4.90763575303059     1.34785282752440
H   13   1     1.64193389675534    -6.79355407945465     0.97314659318890
H   14   1    -0.29048681014202    -4.81040367474334     2.24006056107205
H   15   1     2.72468082571676    -4.56691435331926     2.71738081369757
N   16   7    -2.00544350380280    -3.82433513431467    -3.04041437688297
H   17   1    -2.87205678671934    -5.05516478184926    -1.83221042023780
H   18   1    -2.03637832046193    -4.76397121413665    -4.73247136936628
H   19   1    -3.24475802163669    -2.37551046050250    -3.28123540501917
N   20   7     3.37923471211299    -5.33493873459111    -3.94755661599306
H   21   1     4.17102617885350    -4.76109883042731    -5.61685374703210
H   22   1     2.26176595533881    -6.82326057413281    -4.47610923358166
H   23   1     4.85383336053810    -6.19899521806112    -3.03922195969837
N   24   7    -5.12827828560868     1.10587339727385     0.60762064836653
H   25   1    -5.15408816501799    -0.81544705836782     0.54662784797006
H   26   1    -5.69743166898356     1.68113626520945    -1.14337690194197
H   27   1    -6.63528195761783     1.56841410187914     1.73267665553083
N   28   7    -1.71226383393328     0.02257088883181     4.99588785277390
H   29   1    -1.62991523860311     0.86667375415253     6.73575491620870
H   30   1    -0.22416876152653    -1.19157625647512     4.98456461383551
H   31   1    -3.28782110056328    -1.08746368536834     5.11339858210385
N   32   7     2.00548696750367     3.82438993637228     3.04035957482536
H   33   1     2.05186651577887     4.68410571893416     4.77402266739321
H   34   1     2.83712330958063     5.12208376337235     1.87805706574587
H   35   1     3.26582090902109     2.38241174030942     3.19051154350492
N   36   7    -1.41052748417173     4.90769055508820    -1.34790762958202
H   37   1    -1.75003190025884     6.78104976168840    -0.99229329828299
H   38   1    -2.65834387984003     4.49309409198925    -2.75785496783350
H   39   1     0.32278033988471     4.89894112313146    -2.18344058692784
N   40   7    -3.37919124841212     5.33499353664873     3.94750181393545
H   41   1    -2.26357064378777     6.83195331430581     4.45515784003860
H   42   1    -4.15358022727151     4.76963661305810     5.62761006813313
H   43   1    -4.86681766873998     6.18449345978121     3.04686590187224
[GTO]
1 0
 s    6 1.00
          51528.086349  0.0017695545768669
          7737.2103487   0.013556436258096
           1760.374847   0.067162645785071
          496.87706544    0.23295905918518
          161.46520598    0.47040576982722
          55.466352268    0.35733072606876
 s    3 1.00
          107.54732999   -0.10605255446629
          12.408671897    0.62543981484169
          5.0423628826    0.44878820793655
 s    3 1.00
          8.5461640165   -0.21819012081133
          1.3900441221    0.70422525667731
         0.56066602876    0.42488555412558
 s    1 1.00
        0.071483705972                   1
 s    1 1.00
        0.028250687604                   1
 p    5 1.00
          640.48536096  0.0093555063746755
          150.69711194   0.068993338492216
          47.503755296     0.2634118959318
          16.934120165    0.51034501651775
           6.240968059    0.33195512953954
 p    3 1.00
          3.0885463206    0.32917682676976
          1.1791047769    0.55491385190365
         0.43369774432    0.23818412855984
 p    1 1.00
              0.120675                   1
 d    4 1.00
          27.559479426   0.036950140313562
          7.4687020327    0.18821519783039
          2.4345903574    0.44641244239929
         0.78244754808     0.5681617303244
 d    1 1.00
         0.21995774311                   1
 f    1 1.00
                 1.147                   1

2 0
 s    6 1.00
          51528.086349  0.0017695545768669
          7737.2103487   0.013556436258096
           1760.374847   0.067162645785071
          496.87706544    0.23295905918518
          161.46520598    0.47040576982722
          55.466352268    0.35733072606876
 s    3 1.00
          107.54732999   -0.10605255446629
          12.408671897    0.62543981484169
          5.0423628826    0.44878820793655
 s    3 1.00
          8.5461640165   -0.21819012081133
          1.3900441221    0.70422525667731
         0.56066602876    0.42488555412558
 s    1 1.00
        0.071483705972                   1
 s    1 1.00
        0.028250687604                   1
 p    5 1.00
          640.48536096  0.0093555063746755
          150.69711194   0.068993338492216
          47.503755296     0.2634118959318
          16.934120165    0.51034501651775
           6.240968059    0.33195512953954
 p    3 1.00
          3.0885463206    0.32917682676976
          1.1791047769    0.55491385190365
         0.43369774432    0.23818412855984
 p    1 1.00
              0.120675                   1
 d    4 1.00
          27.559479426   0.036950140313562
          7.4687020327    0.18821519783039
          2.4345903574    0.44641244239929
         0.78244754808     0.5681617303244
 d    1 1.00
         0.21995774311                   1
 f    1 1.00
                 1.147                   1

3 0
 s    5 1.00
          2266.1767785  -0.0053893503921743
          340.87010191   -0.04023472138896
          77.363135167   -0.18008184205526
           21.47964494   -0.46828857657651
          6.6589433124   -0.44692617160187
 s    1 1.00
         0.80975975668                   1
 s    1 1.00
         0.25530772234                   1
 p    3 1.00
          17.721504317   0.062630248763161
           3.863550544    0.33331138482352
          1.0480920883    0.74148638308122
 p    1 1.00
         0.27641544411                   1
 d    1 1.00
                   1.2                   1

4 0
 s    5 1.00
          1712.8415853  -0.0054477995804909
          257.64812677  -0.040627174632423
          58.458245853   -0.18111962250584
          16.198367905   -0.46843975563173
          5.0052600809   -0.44616846289231
 s    1 1.00
         0.58731856571                   1
 s    1 1.00
         0.18764592253                   1
 p    3 1.00
          13.571470233  -0.058848116969522
          2.9257372874   -0.32024624762471
         0.79927750754   -0.75328226520436
 p    1 1.00
         0.21954348034                   1
 d    1 1.00
                     1                   1

5 0
 s    3 1.00
             13.010701   0.033485484812989
             1.9622572    0.23472187088125
            0.44453796    0.81377028525955
 s    1 1.00
            0.12194962                   1
 p    1 1.00
                   0.8                   1

6 0
 s    3 1.00
             13.010701   0.033485484812989
             1.9622572    0.23472187088125
            0.44453796    0.81377028525955
 s    1 1.00
            0.12194962                   1
 p    1 1.00
                   0.8                   1

7 0
 s    3 1.00
             13.010701   0.033485484812989
             1.9622572    0.23472187088125
            0.44453796    0.81377028525955
 s    1 1.00
            0.12194962                   1
 p    1 1.00
                   0.8                   1

8 0
 s    5 1.00
          1712.8415853  -0.0054477995804909
          257.64812677  -0.040627174632423
          58.458245853   -0.18111962250584
          16.198367905   -0.46843975563173
          5.0052600809   -0.44616846289231
 s    1 1.00
         0.58731856571                   1
 s    1 1.00
         0.18764592253                   1
 p    3 1.00
          13.571470233  -0.058848116969522
          2.9257372874   -0.32024624762471
         0.79927750754   -0.75328226520436
 p    1 1.00
         0.21954348034                   1
 d    1 1.00
                     1                   1

9 0
 s    3 1.00
             13.010701   0.033485484812989
             1.9622572    0.23472187088125
            0.44453796    0.81377028525955
 s    1 1.00
            0.12194962                   1
 p    1 1.00
                   0.8                   1

10 0
 s    3 1.00
             13.010701   0.033485484812989
             1.9622572    0.23472187088125
            0.44453796    0.81377028525955
 s    1 1.00
            0.12194962                   1
 p    1 1.00
                   0.8                   1

11 0
 s    3 1.00
             13.010701   0.033485484812989
             1.9622572    0.23472187088125
            0.44453796    0.81377028525955
 s    1 1.00
            0.12194962                   1
 p    1 1.00
                   0.8                   1

12 0
 s    5 1.00
          1712.8415853  -0.0054477995804909
          257.64812677  -0.040627174632423
          58.458245853   -0.18111962250584
          16.198367905   -0.46843975563173
          5.0052600809   -0.44616846289231
 s    1 1.00
         0.58731856571                   1
 s    1 1.00
         0.18764592253                   1
 p    3 1.00
          13.571470233  -0.058848116969522
          2.9257372874   -0.32024624762471
         0.79927750754   -0.75328226520436
 p    1 1.00
         0.21954348034                   1
 d    1 1.00
                     1                   1

13 0
 s    3 1.00
             13.010701   0.033485484812989
             1.9622572    0.23472187088125
            0.44453796    0.81377028525955
 s    1 1.00
            0.12194962                   1
 p    1 1.00
                   0.8                   1

14 0
 s    3 1.00
             13.010701   0.033485484812989
             1.9622572    0.23472187088125
            0.44453796    0.81377028525955
 s    1 1.00
            0.12194962                   1
 p    1 1.00
                   0.8                   1

15 0
 s    3 1.00
             13.010701   0.033485484812989
             1.9622572    0.23472187088125
            0.44453796    0.81377028525955
 s    1 1.00
            0.12194962                   1
 p    1 1.00
                   0.8                   1

16 0
 s    5 1.00
          1712.8415853  -0.0054477995804909
          257.64812677  -0.040627174632423
          58.458245853   -0.18111962250584
          16.198367905   -0.46843975563173
          5.0052600809   -0.44616846289231
 s    1 1.00
         0.58731856571                   1
 s    1 1.00
         0.18764592253                   1
 p    3 1.00
          13.571470233  -0.058848116969522
          2.9257372874   -0.32024624762471
         0.79927750754   -0.75328226520436
 p    1 1.00
         0.21954348034                   1
 d    1 1.00
                     1                   1

17 0
 s    3 1.00
             13.010701   0.033485484812989
             1.9622572    0.23472187088125
            0.44453796    0.81377028525955
 s    1 1.00
            0.12194962                   1
 p    1 1.00
                   0.8                   1

18 0
 s    3 1.00
             13.010701   0.033485484812989
             1.9622572    0.23472187088125
            0.44453796    0.81377028525955
 s    1 1.00
            0.12194962                   1
 p    1 1.00
                   0.8                   1

19 0
 s    3 1.00
             13.010701   0.033485484812989
             1.9622572    0.23472187088125
            0.44453796    0.81377028525955
 s    1 1.00
            0.12194962                   1
 p    1 1.00
                   0.8                   1

20 0
 s    5 1.00
          1712.8415853  -0.0054477995804909
          257.64812677  -0.040627174632423
          58.458245853   -0.18111962250584
          16.198367905   -0.46843975563173
          5.0052600809   -0.44616846289231
 s    1 1.00
         0.58731856571                   1
 s    1 1.00
         0.18764592253                   1
 p    3 1.00
          13.571470233  -0.058848116969522
          2.9257372874   -0.32024624762471
         0.79927750754   -0.75328226520436
 p    1 1.00
         0.21954348034                   1
 d    1 1.00
                     1                   1

21 0
 s    3 1.00
             13.010701   0.033485484812989
             1.9622572    0.23472187088125
            0.44453796    0.81377028525955
 s    1 1.00
            0.12194962                   1
 p    1 1.00
                   0.8                   1

22 0
 s    3 1.00
             13.010701   0.033485484812989
             1.9622572    0.23472187088125
            0.44453796    0.81377028525955
 s    1 1.00
            0.12194962                   1
 p    1 1.00
                   0.8                   1

23 0
 s    3 1.00
             13.010701   0.033485484812989
             1.9622572    0.23472187088125
            0.44453796    0.81377028525955
 s    1 1.00
            0.12194962                   1
 p    1 1.00
                   0.8                   1

24 0
 s    5 1.00
          1712.8415853  -0.0054477995804909
          257.64812677  -0.040627174632423
          58.458245853   -0.18111962250584
          16.198367905   -0.46843975563173
          5.0052600809   -0.44616846289231
 s    1 1.00
         0.58731856571                   1
 s    1 1.00
         0.18764592253                   1
 p    3 1.00
          13.571470233  -0.058848116969522
          2.9257372874   -0.32024624762471
         0.79927750754   -0.75328226520436
 p    1 1.00
         0.21954348034                   1
 d    1 1.00
                     1                   1

25 0
 s    3 1.00
             13.010701   0.033485484812989
             1.9622572    0.23472187088125
            0.44453796    0.81377028525955
 s    1 1.00
            0.12194962                   1
 p    1 1.00
                   0.8                   1

26 0
 s    3 1.00
             13.010701   0.033485484812989
             1.9622572    0.23472187088125
            0.44453796    0.81377028525955
 s    1 1.00
            0.12194962                   1
 p    1 1.00
                   0.8                   1

27 0
 s    3 1.00
             13.010701   0.033485484812989
             1.9622572    0.23472187088125
            0.44453796    0.81377028525955
 s    1 1.00
            0.12194962                   1
 p    1 1.00
                   0.8                   1

28 0
 s    5 1.00
          1712.8415853  -0.0054477995804909
          257.64812677  -0.040627174632423
          58.458245853   -0.18111962250584
          16.198367905   -0.46843975563173
          5.0052600809   -0.44616846289231
 s    1 1.00
         0.58731856571                   1
 s    1 1.00
         0.18764592253                   1
 p    3 1.00
          13.571470233  -0.058848116969522
          2.9257372874   -0.32024624762471
         0.79927750754   -0.75328226520436
 p    1 1.00
         0.21954348034                   1
 d    1 1.00
                     1                   1

29 0
 s    3 1.00
             13.010701   0.033485484812989
             1.9622572    0.23472187088125
            0.44453796    0.81377028525955
 s    1 1.00
            0.12194962                   1
 p    1 1.00
                   0.8                   1

30 0
 s    3 1.00
             13.010701   0.033485484812989
             1.9622572    0.23472187088125
            0.44453796    0.81377028525955
 s    1 1.00
            0.12194962                   1
 p    1 1.00
                   0.8                   1

31 0
 s    3 1.00
             13.010701   0.033485484812989
             1.9622572    0.23472187088125
            0.44453796    0.81377028525955
 s    1 1.00
            0.12194962                   1
 p    1 1.00
                   0.8                   1

32 0
 s    5 1.00
          1712.8415853  -0.0054477995804909
          257.64812677  -0.040627174632423
          58.458245853   -0.18111962250584
          16.198367905   -0.46843975563173
          5.0052600809   -0.44616846289231
 s    1 1.00
         0.58731856571                   1
 s    1 1.00
         0.18764592253                   1
 p    3 1.00
          13.571470233  -0.058848116969522
          2.9257372874   -0.32024624762471
         0.79927750754   -0.75328226520436
 p    1 1.00
         0.21954348034                   1
 d    1 1.00
                     1                   1

33 0
 s    3 1.00
             13.010701   0.033485484812989
             1.9622572    0.23472187088125
            0.44453796    0.81377028525955
 s    1 1.00
            0.12194962                   1
 p    1 1.00
                   0.8                   1

34 0
 s    3 1.00
             13.010701   0.033485484812989
             1.9622572    0.23472187088125
            0.44453796    0.81377028525955
 s    1 1.00
            0.12194962                   1
 p    1 1.00
                   0.8                   1

35 0
 s    3 1.00
             13.010701   0.033485484812989
             1.9622572    0.23472187088125
            0.44453796    0.81377028525955
 s    1 1.00
            0.12194962                   1
 p    1 1.00
                   0.8                   1

36 0
 s    5 1.00
          1712.8415853  -0.0054477995804909
          257.64812677  -0.040627174632423
          58.458245853   -0.18111962250584
          16.198367905   -0.46843975563173
          5.0052600809   -0.44616846289231
 s    1 1.00
         0.58731856571                   1
 s    1 1.00
         0.18764592253                   1
 p    3 1.00
          13.571470233  -0.058848116969522
          2.9257372874   -0.32024624762471
         0.79927750754   -0.75328226520436
 p    1 1.00
         0.21954348034                   1
 d    1 1.00
                     1                   1

37 0
 s    3 1.00
             13.010701   0.033485484812989
             1.9622572    0.23472187088125
            0.44453796    0.81377028525955
 s    1 1.00
            0.12194962                   1
 p    1 1.00
                   0.8                   1

38 0
 s    3 1.00
             13.010701   0.033485484812989
             1.9622572    0.23472187088125
            0.44453796    0.81377028525955
 s    1 1.00
            0.12194962                   1
 p    1 1.00
                   0.8                   1

39 0
 s    3 1.00
             13.010701   0.033485484812989
             1.9622572    0.23472187088125
            0.44453796    0.81377028525955
 s    1 1.00
            0.12194962                   1
 p    1 1.00
                   0.8                   1

40 0
 s    5 1.00
          1712.8415853  -0.0054477995804909
          257.64812677  -0.040627174632423
          58.458245853   -0.18111962250584
          16.198367905   -0.46843975563173
          5.0052600809   -0.44616846289231
 s    1 1.00
         0.58731856571                   1
 s    1 1.00
         0.18764592253                   1
 p    3 1.00
          13.571470233  -0.058848116969522
          2.9257372874   -0.32024624762471
         0.79927750754   -0.75328226520436
 p    1 1.00
         0.21954348034                   1
 d    1 1.00
                     1                   1

41 0
 s    3 1.00
             13.010701   0.033485484812989
             1.9622572    0.23472187088125
            0.44453796    0.81377028525955
 s    1 1.00
            0.12194962                   1
 p    1 1.00
                   0.8                   1

42 0
 s    3 1.00
             13.010701   0.033485484812989
             1.9622572    0.23472187088125
            0.44453796    0.81377028525955
 s    1 1.00
            0.12194962                   1
 p    1 1.00
                   0.8                   1

43 0
 s    3 1.00
             13.010701   0.033485484812989
             1.9622572    0.23472187088125
            0.44453796    0.81377028525955
 s    1 1.00
            0.12194962                   1
 p    1 1.00
                   0.8                   1

[5d]
[7f]
[9g]

[MO]
 Sym= A
 Ene=               0
 Spin= Alpha
 Occup=    1.00000
   1    6.4559207607654e-06
   2    -1.3708147011747e-05
   3    0.00013406849015065
   4    -0.00023743054432884
   5     0.001603915476409
   6    0.0083763831421157
   7    0.0076075512300921
   8    -0.0032163484503957
   9    -0.032038288941232
  10    -0.028975662690779
  11     0.012351441137571
  12     0.057480739300306
  13     0.052807986568895
  14    -0.021899944761121
  15    -0.023824211470062
  16     0.047865530500768
  17     0.014640746138298
  18    -0.075777977568353
  19     0.020465720135526
  20    -0.014693971396597
  21     0.029214206734859
  22    0.0090764040294986
  23    -0.045759316400632
  24     0.012511484954037
  25    -0.00014387987737963
  26    0.0017577650382021
  27    -0.0016807204315862
  28    -0.0046388550655389
  29    0.0019208141205032
  30    0.0011444227689035
  31    -0.0046541811022397
  32    -7.3428302128149e-06
  33    1.5757445127907e-05
  34    -0.00014733065836859
  35    -8.8353025248932e-05
  36    -0.00079886008890676
  37    0.0083752840700726
  38    0.0076088957714451
  39    -0.0032162928665808
  40    -0.032039090212691
  41    -0.028981453290862
  42      0.01234100632406
  43     0.057558366235379
  44     0.052941023123283
  45    -0.021562472228752
  46     0.023982234520181
  47    -0.047944429939589
  48    -0.014517956555559
  49      0.07573951818891
  50     -0.02030935560615
  51     0.014666329187703
  52    -0.029144677884569
  53    -0.0091296247444541
  54      0.04575029274814
  55    -0.012763009436405
  56    -0.00014561031694175
  57    0.0017581385457108
  58    -0.0016864715527576
  59    -0.0046375676568923
  60    0.0019210593857515
  61    0.0011464631546119
  62    -0.004652239876033
  63    6.4156711296298e-06
  64    4.4262218696231e-06
  65    6.6857009273647e-05
  66      0.40167677996343
  67       0.3669913950929
  68     -0.15347988701991
  69      0.34708631804068
  70      0.31738631335837
  71     -0.13269450667857
  72    -1.0744124598161e-05
  73    5.2060603701013e-06
  74    -7.6393400302768e-06
  75    7.5548392007174e-07
  76    -1.9363096501311e-05
  77    -0.010382783445459
  78    -0.023213613501869
  79    -0.056714822034678
  80    -0.022532143396742
  81    0.0099573683554736
  82    -0.0026525195845732
  83     0.023001345003785
  84    -0.0062135992447565
  85     0.019743373159645
  86    2.0712401091837e-05
  87    -0.00069462519804684
  88    -4.4202357735925e-05
  89    0.0022636795623093
  90    -0.0016402964138821
  91      0.01776744841646
  92    0.0063361897137196
  93    -0.00018270599773663
  94    -0.00010083674698026
  95    0.00064862747226216
  96    -0.0027203925762768
  97    -0.0027957670241638
  98    0.0014599748753106
  99    -0.0011085006039011
 100    0.00049356451951873
 101    -0.015177239734398
 102     0.026750175148428
 103    -0.003186651021879
 104    0.00037152789996816
 105    -0.00052749877956156
 106    -0.0083340638706683
 107    -0.020076356815248
 108    -0.035690095174612
 109    -0.0032864599763154
 110    0.0010814638913763
 111     0.018822939551046
 112    -0.0017075250293014
 113     0.014397627576091
 114    -0.017046891783941
 115     0.001857632374866
 116    -0.00037939040269171
 117       0.0011753681117
 118    -2.8717262549045e-05
 119    0.00022696657103704
 120    -0.012777221653755
 121     0.003593123601141
 122    -0.0011666321390405
 123    0.00085134682231802
 124    0.0021947300854125
 125     0.015045594717037
 126     0.011613761784269
 127    0.0009508999640269
 128    -5.3951758841453e-05
 129    0.00056254583355818
 130    -0.0053537729719456
 131    -0.0035275182227448
 132    0.00092353572489637
 133    -5.8976317052194e-05
 134    -0.0013875663378982
 135    0.0086631342032172
 136     0.019034169484757
 137      0.04917483598647
 138     0.012855150480265
 139    -0.015971602045788
 140    0.0066625126285633
 141    -0.019214852818207
 142    0.0091965111256205
 143    -0.018720325258217
 144    0.00078989952197088
 145    -0.001450407048863
 146    0.00012679232877966
 147     0.001582719004771
 148     0.001002838062273
 149    -0.014537958933906
 150    -0.0045736209039632
 151    -0.00024694376031369
 152    -0.00034417901781445
 153    -0.0003550397035029
 154     0.012884445094695
 155    -0.026727657361975
 156    0.00071500000067624
 157    -0.0023969854995584
 158     0.001690935420293
 159    0.0010198998842887
 160    0.0029999458115082
 161    -0.0012265463479357
 162    0.0010762636754361
 163    -0.00048382556187057
 164     0.010018286551399
 165     0.023986148596628
 166     0.043811225872906
 167    -0.0089801180936685
 168    -0.014621928428584
 169    -0.014823574204524
 170     0.025211068847816
 171    0.0058925896928656
 172    0.0068084898560046
 173    -0.0012262145840526
 174    -0.00036895607841377
 175    -0.0020578275574977
 176    0.00098228149651574
 177    -0.00065325568263613
 178    0.0075340897115958
 179    0.0026972613292862
 180    0.00043702194654122
 181     0.001637475298849
 182    0.0003203458557832
 183    -0.018550610444903
 184    -0.013711979119954
 185    -0.00030108640561488
 186    0.00035326204845981
 187    -0.0010332722283731
 188     0.014588297082776
 189    -0.0044425418044643
 190    -0.00014978687771325
 191    -0.0023817961869583
 192    -0.00088212469074691
 193    -2.7130043556216e-05
 194    -0.00012003807696446
 195    8.8261572742306e-05
 196     0.001791193968513
 197     0.001709098137689
 198    -0.00062505273492281
 199    0.0005436916584985
 200    0.00030020864046469
 201    -0.00030121464703961
 202    0.00018002790279116
 203    -0.00021344441832999
 204    -0.0001465007531286
 205    0.00022809737928764
 206    -0.00014607623226666
 207    -0.0011356435791531
 208    -0.0028562811332597
 209    0.00019713094710755
 210    -0.00043226448149224
 211    -0.00055150113951024
 212    0.0012819715526828
 213    0.0029862903657161
 214    -0.00020793712557995
 215    0.00059835410016461
 216    0.00052062685839271
 217    -0.00021541211360638
 218    -0.00072983023271826
 219    -9.6821537110795e-05
 220    -0.00028891855144618
 221    7.2149840124332e-05
 222      0.01046679755524
 223     0.023131748515734
 224     0.058345706495287
 225     -0.02276815014641
 226      0.01046218663262
 227    -0.0022585423782032
 228     0.023915644702103
 229    -0.0078991598919279
 230     0.018449417154846
 231    -5.7531865040388e-05
 232    0.0006705868742242
 233    0.00022120170156796
 234    -0.0022932009398471
 235    0.0015479410965701
 236     0.015172094515991
 237    -0.028605083046959
 238    -0.0036002826256433
 239    0.00042329344019728
 240    -0.00052294908251429
 241    0.0013147287284347
 242    0.0021567138506814
 243    0.0015330856970777
 244    -0.001120800825577
 245    0.00027180438221631
 246    -0.017085537872331
 247    -0.0054909441603919
 248    -5.9593371429621e-05
 249    -0.00022262457883454
 250    0.00069746045737823
 251    0.0082727703914403
 252     0.020138484348515
 253     0.034501935655102
 254    -0.0027337173296453
 255    0.00073773812816533
 256     0.018665866201598
 257    -0.0035688391174875
 258     0.015270373375483
 259     -0.01650275363781
 260    -0.0018610488839164
 261    0.00045664130511208
 262    -0.0012192744909652
 263    7.1053461359128e-05
 264    -6.6185707843009e-05
 265    -0.015407261603228
 266    -0.012220042995762
 267    0.00085208597580762
 268    2.6002678370562e-05
 269    0.00064663677704264
 270     0.012468032497445
 271    -0.0013655763303406
 272    -0.001294147657094
 273    0.00079647439866329
 274    0.0017123780940003
 275    0.0065212769970185
 276     0.002861077104398
 277    0.00097000009484508
 278    1.7710043281368e-05
 279    -0.0012009809733516
 280    -0.010064203216395
 281     -0.02396615633407
 282    -0.044647862378512
 283    -0.0087671744872903
 284    -0.015088159976871
 285    -0.014799144355672
 286     0.024674915100956
 287     0.007333414905273
 288    0.0066406855185353
 289    0.0012956519355446
 290    0.0003703253526869
 291    0.0019587577128854
 292    -0.00095800117120954
 293    0.00073722652793995
 294     0.018263133705988
 295     0.013156538529624
 296    -0.00033626856076957
 297    0.00047922482196294
 298    -0.0010121779045861
 299    -0.006611767004283
 300    -0.0029850732094555
 301    0.00045184438040992
 302    0.0016965245120756
 303    0.0005068212904769
 304    -0.014932583361406
 305    0.0060885056650631
 306    -0.00026348025226141
 307    -0.0025233747693311
 308    -0.0012297120914716
 309    -0.0085843477322566
 310    -0.019130288315557
 311    -0.047313551511581
 312     0.012579123914069
 313    -0.015592168742075
 314    0.0070278226469343
 315    -0.018223674296413
 316    0.0078656947367226
 317    -0.020096728220429
 318    -0.00074910253228535
 319    0.0013697384764425
 320    -4.5892510429353e-05
 321    -0.001617443043292
 322    -0.0011271182275305
 323     0.015054107600031
 324    0.0054187124224677
 325    -0.00012899175603685
 326    -0.00041470849902088
 327    -0.00030248271189555
 328    -0.002135387208867
 329    -0.0041109603341588
 330    -0.0013031080930953
 331    0.00093838818906869
 332    -0.00062830852670644
 333    -0.012957540036675
 334     0.024778010832307
 335    0.00064283834059726
 336    -0.002087506492578
 337    0.0015406871002533
 338    3.6311776170436e-05
 339    0.00015053901255293
 340    -6.6075295501928e-05
 341    0.0017515948289193
 342    0.0017268990954661
 343    -0.00065340804896964