[Molden Format]
made by pyscf v[2.1.1]
[Atoms] (AU)
Cr   1   24     1.56143912275337    -2.46507591990239    -1.82404491365355
Cr   2   24    -1.56139565905251     2.46513072196000     1.82399011159594
O   3   8     0.00002078698737     0.00002834589187    -0.00002645616574
N   4   7     5.12832174930954    -1.10581670549011    -0.60767356069801
H   5   1     6.65216855026694    -1.66292686427314    -1.66487895135981
H   6   1     5.63710405218294    -1.59213394419468     1.18765885421890
H   7   1     5.20084187906585     0.81566059741989    -0.65509245834172
N   8   7     1.71230729763415    -0.02251608677419    -4.99594076510539
H   9   1     0.29795878723855     1.27247165241550    -4.90823668593820
H   10   1     1.50271021425414    -0.85583806455427    -6.73026148236459
H   11   1     3.34039895052705     0.99863710888315    -5.18656310846864
N   12   7     1.41057094787259    -4.90763575303059     1.34785282752440
H   13   1     1.64193389675534    -6.79355407945465     0.97314659318890
H   14   1    -0.29048681014202    -4.81040367474334     2.24006056107205
H   15   1     2.72468082571676    -4.56691435331926     2.71738081369757
N   16   7    -2.00544350380280    -3.82433513431467    -3.04041437688297
H   17   1    -2.87205678671934    -5.05516478184926    -1.83221042023780
H   18   1    -2.03637832046193    -4.76397121413665    -4.73247136936628
H   19   1    -3.24475802163669    -2.37551046050250    -3.28123540501917
N   20   7     3.37923471211299    -5.33493873459111    -3.94755661599306
H   21   1     4.17102617885350    -4.76109883042731    -5.61685374703210
H   22   1     2.26176595533881    -6.82326057413281    -4.47610923358166
H   23   1     4.85383336053810    -6.19899521806112    -3.03922195969837
N   24   7    -5.12827828560868     1.10587339727385     0.60762064836653
H   25   1    -5.15408816501799    -0.81544705836782     0.54662784797006
H   26   1    -5.69743166898356     1.68113626520945    -1.14337690194197
H   27   1    -6.63528195761783     1.56841410187914     1.73267665553083
N   28   7    -1.71226383393328     0.02257088883181     4.99588785277390
H   29   1    -1.62991523860311     0.86667375415253     6.73575491620870
H   30   1    -0.22416876152653    -1.19157625647512     4.98456461383551
H   31   1    -3.28782110056328    -1.08746368536834     5.11339858210385
N   32   7     2.00548696750367     3.82438993637228     3.04035957482536
H   33   1     2.05186651577887     4.68410571893416     4.77402266739321
H   34   1     2.83712330958063     5.12208376337235     1.87805706574587
H   35   1     3.26582090902109     2.38241174030942     3.19051154350492
N   36   7    -1.41052748417173     4.90769055508820    -1.34790762958202
H   37   1    -1.75003190025884     6.78104976168840    -0.99229329828299
H   38   1    -2.65834387984003     4.49309409198925    -2.75785496783350
H   39   1     0.32278033988471     4.89894112313146    -2.18344058692784
N   40   7    -3.37919124841212     5.33499353664873     3.94750181393545
H   41   1    -2.26357064378777     6.83195331430581     4.45515784003860
H   42   1    -4.15358022727151     4.76963661305810     5.62761006813313
H   43   1    -4.86681766873998     6.18449345978121     3.04686590187224
[GTO]
1 0
 s    6 1.00
          51528.086349  0.0017695545768669
          7737.2103487   0.013556436258096
           1760.374847   0.067162645785071
          496.87706544    0.23295905918518
          161.46520598    0.47040576982722
          55.466352268    0.35733072606876
 s    3 1.00
          107.54732999   -0.10605255446629
          12.408671897    0.62543981484169
          5.0423628826    0.44878820793655
 s    3 1.00
          8.5461640165   -0.21819012081133
          1.3900441221    0.70422525667731
         0.56066602876    0.42488555412558
 s    1 1.00
        0.071483705972                   1
 s    1 1.00
        0.028250687604                   1
 p    5 1.00
          640.48536096  0.0093555063746755
          150.69711194   0.068993338492216
          47.503755296     0.2634118959318
          16.934120165    0.51034501651775
           6.240968059    0.33195512953954
 p    3 1.00
          3.0885463206    0.32917682676976
          1.1791047769    0.55491385190365
         0.43369774432    0.23818412855984
 p    1 1.00
              0.120675                   1
 d    4 1.00
          27.559479426   0.036950140313562
          7.4687020327    0.18821519783039
          2.4345903574    0.44641244239929
         0.78244754808     0.5681617303244
 d    1 1.00
         0.21995774311                   1
 f    1 1.00
                 1.147                   1

2 0
 s    6 1.00
          51528.086349  0.0017695545768669
          7737.2103487   0.013556436258096
           1760.374847   0.067162645785071
          496.87706544    0.23295905918518
          161.46520598    0.47040576982722
          55.466352268    0.35733072606876
 s    3 1.00
          107.54732999   -0.10605255446629
          12.408671897    0.62543981484169
          5.0423628826    0.44878820793655
 s    3 1.00
          8.5461640165   -0.21819012081133
          1.3900441221    0.70422525667731
         0.56066602876    0.42488555412558
 s    1 1.00
        0.071483705972                   1
 s    1 1.00
        0.028250687604                   1
 p    5 1.00
          640.48536096  0.0093555063746755
          150.69711194   0.068993338492216
          47.503755296     0.2634118959318
          16.934120165    0.51034501651775
           6.240968059    0.33195512953954
 p    3 1.00
          3.0885463206    0.32917682676976
          1.1791047769    0.55491385190365
         0.43369774432    0.23818412855984
 p    1 1.00
              0.120675                   1
 d    4 1.00
          27.559479426   0.036950140313562
          7.4687020327    0.18821519783039
          2.4345903574    0.44641244239929
         0.78244754808     0.5681617303244
 d    1 1.00
         0.21995774311                   1
 f    1 1.00
                 1.147                   1

3 0
 s    5 1.00
          2266.1767785  -0.0053893503921743
          340.87010191   -0.04023472138896
          77.363135167   -0.18008184205526
           21.47964494   -0.46828857657651
          6.6589433124   -0.44692617160187
 s    1 1.00
         0.80975975668                   1
 s    1 1.00
         0.25530772234                   1
 p    3 1.00
          17.721504317   0.062630248763161
           3.863550544    0.33331138482352
          1.0480920883    0.74148638308122
 p    1 1.00
         0.27641544411                   1
 d    1 1.00
                   1.2                   1

4 0
 s    5 1.00
          1712.8415853  -0.0054477995804909
          257.64812677  -0.040627174632423
          58.458245853   -0.18111962250584
          16.198367905   -0.46843975563173
          5.0052600809   -0.44616846289231
 s    1 1.00
         0.58731856571                   1
 s    1 1.00
         0.18764592253                   1
 p    3 1.00
          13.571470233  -0.058848116969522
          2.9257372874   -0.32024624762471
         0.79927750754   -0.75328226520436
 p    1 1.00
         0.21954348034                   1
 d    1 1.00
                     1                   1

5 0
 s    3 1.00
             13.010701   0.033485484812989
             1.9622572    0.23472187088125
            0.44453796    0.81377028525955
 s    1 1.00
            0.12194962                   1
 p    1 1.00
                   0.8                   1

6 0
 s    3 1.00
             13.010701   0.033485484812989
             1.9622572    0.23472187088125
            0.44453796    0.81377028525955
 s    1 1.00
            0.12194962                   1
 p    1 1.00
                   0.8                   1

7 0
 s    3 1.00
             13.010701   0.033485484812989
             1.9622572    0.23472187088125
            0.44453796    0.81377028525955
 s    1 1.00
            0.12194962                   1
 p    1 1.00
                   0.8                   1

8 0
 s    5 1.00
          1712.8415853  -0.0054477995804909
          257.64812677  -0.040627174632423
          58.458245853   -0.18111962250584
          16.198367905   -0.46843975563173
          5.0052600809   -0.44616846289231
 s    1 1.00
         0.58731856571                   1
 s    1 1.00
         0.18764592253                   1
 p    3 1.00
          13.571470233  -0.058848116969522
          2.9257372874   -0.32024624762471
         0.79927750754   -0.75328226520436
 p    1 1.00
         0.21954348034                   1
 d    1 1.00
                     1                   1

9 0
 s    3 1.00
             13.010701   0.033485484812989
             1.9622572    0.23472187088125
            0.44453796    0.81377028525955
 s    1 1.00
            0.12194962                   1
 p    1 1.00
                   0.8                   1

10 0
 s    3 1.00
             13.010701   0.033485484812989
             1.9622572    0.23472187088125
            0.44453796    0.81377028525955
 s    1 1.00
            0.12194962                   1
 p    1 1.00
                   0.8                   1

11 0
 s    3 1.00
             13.010701   0.033485484812989
             1.9622572    0.23472187088125
            0.44453796    0.81377028525955
 s    1 1.00
            0.12194962                   1
 p    1 1.00
                   0.8                   1

12 0
 s    5 1.00
          1712.8415853  -0.0054477995804909
          257.64812677  -0.040627174632423
          58.458245853   -0.18111962250584
          16.198367905   -0.46843975563173
          5.0052600809   -0.44616846289231
 s    1 1.00
         0.58731856571                   1
 s    1 1.00
         0.18764592253                   1
 p    3 1.00
          13.571470233  -0.058848116969522
          2.9257372874   -0.32024624762471
         0.79927750754   -0.75328226520436
 p    1 1.00
         0.21954348034                   1
 d    1 1.00
                     1                   1

13 0
 s    3 1.00
             13.010701   0.033485484812989
             1.9622572    0.23472187088125
            0.44453796    0.81377028525955
 s    1 1.00
            0.12194962                   1
 p    1 1.00
                   0.8                   1

14 0
 s    3 1.00
             13.010701   0.033485484812989
             1.9622572    0.23472187088125
            0.44453796    0.81377028525955
 s    1 1.00
            0.12194962                   1
 p    1 1.00
                   0.8                   1

15 0
 s    3 1.00
             13.010701   0.033485484812989
             1.9622572    0.23472187088125
            0.44453796    0.81377028525955
 s    1 1.00
            0.12194962                   1
 p    1 1.00
                   0.8                   1

16 0
 s    5 1.00
          1712.8415853  -0.0054477995804909
          257.64812677  -0.040627174632423
          58.458245853   -0.18111962250584
          16.198367905   -0.46843975563173
          5.0052600809   -0.44616846289231
 s    1 1.00
         0.58731856571                   1
 s    1 1.00
         0.18764592253                   1
 p    3 1.00
          13.571470233  -0.058848116969522
          2.9257372874   -0.32024624762471
         0.79927750754   -0.75328226520436
 p    1 1.00
         0.21954348034                   1
 d    1 1.00
                     1                   1

17 0
 s    3 1.00
             13.010701   0.033485484812989
             1.9622572    0.23472187088125
            0.44453796    0.81377028525955
 s    1 1.00
            0.12194962                   1
 p    1 1.00
                   0.8                   1

18 0
 s    3 1.00
             13.010701   0.033485484812989
             1.9622572    0.23472187088125
            0.44453796    0.81377028525955
 s    1 1.00
            0.12194962                   1
 p    1 1.00
                   0.8                   1

19 0
 s    3 1.00
             13.010701   0.033485484812989
             1.9622572    0.23472187088125
            0.44453796    0.81377028525955
 s    1 1.00
            0.12194962                   1
 p    1 1.00
                   0.8                   1

20 0
 s    5 1.00
          1712.8415853  -0.0054477995804909
          257.64812677  -0.040627174632423
          58.458245853   -0.18111962250584
          16.198367905   -0.46843975563173
          5.0052600809   -0.44616846289231
 s    1 1.00
         0.58731856571                   1
 s    1 1.00
         0.18764592253                   1
 p    3 1.00
          13.571470233  -0.058848116969522
          2.9257372874   -0.32024624762471
         0.79927750754   -0.75328226520436
 p    1 1.00
         0.21954348034                   1
 d    1 1.00
                     1                   1

21 0
 s    3 1.00
             13.010701   0.033485484812989
             1.9622572    0.23472187088125
            0.44453796    0.81377028525955
 s    1 1.00
            0.12194962                   1
 p    1 1.00
                   0.8                   1

22 0
 s    3 1.00
             13.010701   0.033485484812989
             1.9622572    0.23472187088125
            0.44453796    0.81377028525955
 s    1 1.00
            0.12194962                   1
 p    1 1.00
                   0.8                   1

23 0
 s    3 1.00
             13.010701   0.033485484812989
             1.9622572    0.23472187088125
            0.44453796    0.81377028525955
 s    1 1.00
            0.12194962                   1
 p    1 1.00
                   0.8                   1

24 0
 s    5 1.00
          1712.8415853  -0.0054477995804909
          257.64812677  -0.040627174632423
          58.458245853   -0.18111962250584
          16.198367905   -0.46843975563173
          5.0052600809   -0.44616846289231
 s    1 1.00
         0.58731856571                   1
 s    1 1.00
         0.18764592253                   1
 p    3 1.00
          13.571470233  -0.058848116969522
          2.9257372874   -0.32024624762471
         0.79927750754   -0.75328226520436
 p    1 1.00
         0.21954348034                   1
 d    1 1.00
                     1                   1

25 0
 s    3 1.00
             13.010701   0.033485484812989
             1.9622572    0.23472187088125
            0.44453796    0.81377028525955
 s    1 1.00
            0.12194962                   1
 p    1 1.00
                   0.8                   1

26 0
 s    3 1.00
             13.010701   0.033485484812989
             1.9622572    0.23472187088125
            0.44453796    0.81377028525955
 s    1 1.00
            0.12194962                   1
 p    1 1.00
                   0.8                   1

27 0
 s    3 1.00
             13.010701   0.033485484812989
             1.9622572    0.23472187088125
            0.44453796    0.81377028525955
 s    1 1.00
            0.12194962                   1
 p    1 1.00
                   0.8                   1

28 0
 s    5 1.00
          1712.8415853  -0.0054477995804909
          257.64812677  -0.040627174632423
          58.458245853   -0.18111962250584
          16.198367905   -0.46843975563173
          5.0052600809   -0.44616846289231
 s    1 1.00
         0.58731856571                   1
 s    1 1.00
         0.18764592253                   1
 p    3 1.00
          13.571470233  -0.058848116969522
          2.9257372874   -0.32024624762471
         0.79927750754   -0.75328226520436
 p    1 1.00
         0.21954348034                   1
 d    1 1.00
                     1                   1

29 0
 s    3 1.00
             13.010701   0.033485484812989
             1.9622572    0.23472187088125
            0.44453796    0.81377028525955
 s    1 1.00
            0.12194962                   1
 p    1 1.00
                   0.8                   1

30 0
 s    3 1.00
             13.010701   0.033485484812989
             1.9622572    0.23472187088125
            0.44453796    0.81377028525955
 s    1 1.00
            0.12194962                   1
 p    1 1.00
                   0.8                   1

31 0
 s    3 1.00
             13.010701   0.033485484812989
             1.9622572    0.23472187088125
            0.44453796    0.81377028525955
 s    1 1.00
            0.12194962                   1
 p    1 1.00
                   0.8                   1

32 0
 s    5 1.00
          1712.8415853  -0.0054477995804909
          257.64812677  -0.040627174632423
          58.458245853   -0.18111962250584
          16.198367905   -0.46843975563173
          5.0052600809   -0.44616846289231
 s    1 1.00
         0.58731856571                   1
 s    1 1.00
         0.18764592253                   1
 p    3 1.00
          13.571470233  -0.058848116969522
          2.9257372874   -0.32024624762471
         0.79927750754   -0.75328226520436
 p    1 1.00
         0.21954348034                   1
 d    1 1.00
                     1                   1

33 0
 s    3 1.00
             13.010701   0.033485484812989
             1.9622572    0.23472187088125
            0.44453796    0.81377028525955
 s    1 1.00
            0.12194962                   1
 p    1 1.00
                   0.8                   1

34 0
 s    3 1.00
             13.010701   0.033485484812989
             1.9622572    0.23472187088125
            0.44453796    0.81377028525955
 s    1 1.00
            0.12194962                   1
 p    1 1.00
                   0.8                   1

35 0
 s    3 1.00
             13.010701   0.033485484812989
             1.9622572    0.23472187088125
            0.44453796    0.81377028525955
 s    1 1.00
            0.12194962                   1
 p    1 1.00
                   0.8                   1

36 0
 s    5 1.00
          1712.8415853  -0.0054477995804909
          257.64812677  -0.040627174632423
          58.458245853   -0.18111962250584
          16.198367905   -0.46843975563173
          5.0052600809   -0.44616846289231
 s    1 1.00
         0.58731856571                   1
 s    1 1.00
         0.18764592253                   1
 p    3 1.00
          13.571470233  -0.058848116969522
          2.9257372874   -0.32024624762471
         0.79927750754   -0.75328226520436
 p    1 1.00
         0.21954348034                   1
 d    1 1.00
                     1                   1

37 0
 s    3 1.00
             13.010701   0.033485484812989
             1.9622572    0.23472187088125
            0.44453796    0.81377028525955
 s    1 1.00
            0.12194962                   1
 p    1 1.00
                   0.8                   1

38 0
 s    3 1.00
             13.010701   0.033485484812989
             1.9622572    0.23472187088125
            0.44453796    0.81377028525955
 s    1 1.00
            0.12194962                   1
 p    1 1.00
                   0.8                   1

39 0
 s    3 1.00
             13.010701   0.033485484812989
             1.9622572    0.23472187088125
            0.44453796    0.81377028525955
 s    1 1.00
            0.12194962                   1
 p    1 1.00
                   0.8                   1

40 0
 s    5 1.00
          1712.8415853  -0.0054477995804909
          257.64812677  -0.040627174632423
          58.458245853   -0.18111962250584
          16.198367905   -0.46843975563173
          5.0052600809   -0.44616846289231
 s    1 1.00
         0.58731856571                   1
 s    1 1.00
         0.18764592253                   1
 p    3 1.00
          13.571470233  -0.058848116969522
          2.9257372874   -0.32024624762471
         0.79927750754   -0.75328226520436
 p    1 1.00
         0.21954348034                   1
 d    1 1.00
                     1                   1

41 0
 s    3 1.00
             13.010701   0.033485484812989
             1.9622572    0.23472187088125
            0.44453796    0.81377028525955
 s    1 1.00
            0.12194962                   1
 p    1 1.00
                   0.8                   1

42 0
 s    3 1.00
             13.010701   0.033485484812989
             1.9622572    0.23472187088125
            0.44453796    0.81377028525955
 s    1 1.00
            0.12194962                   1
 p    1 1.00
                   0.8                   1

43 0
 s    3 1.00
             13.010701   0.033485484812989
             1.9622572    0.23472187088125
            0.44453796    0.81377028525955
 s    1 1.00
            0.12194962                   1
 p    1 1.00
                   0.8                   1

[5d]
[7f]
[9g]

[MO]
 Sym= A
 Ene=               0
 Spin= Alpha
 Occup=    1.00000
   1     0.014906703107752
   2     -0.03194494153141
   3      0.27830284927614
   4    8.4475303498008e-05
   5    -0.012699987539284
   6     0.033608973077243
   7    -0.052820444238607
   8    -0.038819765486803
   9     -0.18415343896537
  10      0.28967659937386
  11       0.2131529642525
  12    0.00019837921649438
  13    -0.0013069831965853
  14    -0.0024218642679458
  15    0.0037120834097125
  16     0.020662643713745
  17    -0.032601035000309
  18      0.01308893432833
  19     0.027414559607526
  20    0.0030936998914937
  21      0.01869845208592
  22    -0.029712622701671
  23     0.011981806872865
  24     0.024684963981169
  25    -7.2023020923582e-05
  26    1.8758181716241e-06
  27    3.0354555682869e-05
  28    -4.8066360332617e-05
  29    -0.0001228751617209
  30    9.1065042062636e-05
  31    -7.3830192918737e-09
  32     -0.01490802455684
  33     0.031947442208598
  34     -0.27832536386912
  35    -7.5454522776732e-05
  36     0.012731555115108
  37     0.033609355434922
  38    -0.052821127425019
  39    -0.038819244408002
  40      -0.1841530700132
  41      0.28968007823911
  42      0.21315140981239
  43    0.00016019966612019
  44    -0.0013474766650529
  45    -0.0023987416500715
  46    -0.0035947330280651
  47    -0.020770470563045
  48     0.032461499396425
  49    -0.013181840024788
  50    -0.027502326652826
  51    -0.0029857054941187
  52     -0.01882177006867
  53     0.029599902962584
  54    -0.012013614565823
  55    -0.024763294830524
  56    -7.1117962090951e-05
  57    1.9107750487171e-06
  58    3.0921205459883e-05
  59    -4.8544580912195e-05
  60    -0.00012318482161112
  61    8.9684055720171e-05
  62    2.1966447678077e-06
  63    -1.9462295709232e-06
  64    4.1077012902087e-05
  65    2.5414762943234e-05
  66     0.022699909267419
  67    -0.037010063514089
  68    -0.030265050194784
  69     0.029249273532439
  70    -0.046929332970002
  71     -0.03726658913389
  72    3.2577706275727e-06
  73    -2.2984803838524e-06
  74    -2.3668304245654e-06
  75    -2.1170850127512e-06
  76    -1.7042967889908e-06
  77     0.013502650959362
  78     0.023269745012103
  79     0.033379273371813
  80      0.07798613480707
  81    -0.0091129472008686
  82    -0.0040836823657506
  83     -0.05678372451257
  84    0.0012075563571797
  85    -0.00070909364218407
  86    -0.00039583215951487
  87    0.0012977227433447
  88    -0.00067800373824978
  89    -0.001014170780217
  90    0.00075703865368149
  91     -0.04253080704604
  92    -0.0078036603278908
  93    0.0025659611812151
  94    -0.0008885909054503
  95    -0.0025174837713695
  96    -0.0045929749552324
  97    -0.0013756105399781
  98    -0.0022200284884062
  99    -0.0003088857879767
 100    0.0008189612451229
 101     0.014240034116641
 102    0.0010783358579041
 103    -0.0026028224753084
 104    -0.0014667105642662
 105    -0.00038608803463615
 106     0.014258356270637
 107      0.02558625315537
 108     0.034060328119334
 109      0.02378702756337
 110     0.010532289905826
 111    -0.075232252432617
 112    -0.014308620243694
 113    -0.013249431858136
 114     0.054125794263599
 115    -0.00090600870798076
 116    -0.00023846199382184
 117    -0.001067830731764
 118    0.00024372092183848
 119    -0.0010459137354433
 120     0.020361285735479
 121    0.0018619306368203
 122    0.00089859236953334
 123    -0.0024711205299464
 124    0.0022176084138281
 125    -0.036748559146564
 126    -0.0070065286337521
 127    -0.0012583033487873
 128    -0.0018475704665473
 129    -0.0024342523820254
 130    -0.014813655852509
 131     -0.00327271123239
 132    0.0012203145176148
 133    0.00063268536848772
 134    0.0019883761199023
 135     0.013528346376678
 136     0.023482313104799
 137     0.033727319695225
 138     0.017121698378949
 139    -0.071761568600905
 140      0.02799270416637
 141    -0.0095084536146974
 142      0.04996951496738
 143    -0.025914779756833
 144    0.00050457294121074
 145    -0.00025138172061316
 146    -0.00086132504433196
 147    0.0016609773298849
 148    0.00032810304017352
 149    -0.042715455322692
 150    -0.0078563476160672
 151    3.3584395973231e-05
 152    -0.0035288062055309
 153    -0.0011635718664035
 154     0.014081967252316
 155    0.0010617154857264
 156    0.00074165988653027
 157    0.0019749209177074
 158    -0.0021380100608781
 159    -0.0042929863217278
 160    -0.0013225038109908
 161    0.0003002582447596
 162    0.0023116362377316
 163    -0.00055698246295142
 164     0.014192447336659
 165     0.025352809034507
 166     0.033736620368012
 167    -0.039973913805402
 168    -0.054626863623072
 169    -0.041488869903576
 170     0.034184759984625
 171     0.036030806453268
 172     0.028609811939083
 173    -0.0013452420731821
 174      0.00047858985159
 175    -0.0010664233356447
 176    0.00023271765066003
 177    -0.00045987513376386
 178    -0.010039335432456
 179    -0.0026001919801855
 180    0.00076432162777327
 181    0.00047243378312148
 182    0.0022186966546451
 183    -0.039410673742728
 184    -0.0074777635850509
 185    0.00037146008371584
 186    -0.00091143534306574
 187    -0.0033155219249405
 188     0.017860651610156
 189    0.0017891781736018
 190    0.0030844016770891
 191    0.00019332200402491
 192    0.0011888610867716
 193    -0.036002280291449
 194     -0.16933081666053
 195     -0.11000817131033
 196    -0.044685701433206
 197     0.071510104005098
 198     0.054517756290267
 199      0.03930025681946
 200    -0.062166630618298
 201    -0.046829917990724
 202    3.9546041258519e-05
 203    0.00012202046395648
 204    -0.00027205426639895
 205    9.7789705525802e-05
 206    0.00028317866781386
 207    -0.021848835576515
 208    0.0063322428619445
 209    0.0028932274307773
 210    -0.00082650966871458
 211    -0.0048992133231084
 212    -0.021888566536529
 213    0.0063551585175909
 214    -0.0009890649268894
 215    -0.0050616652707775
 216    -0.0025546079086252
 217     -0.02466061629503
 218    0.0061406286498022
 219    0.0045172614594579
 220    -0.0039326013220294
 221    0.00052045479390124
 222    -0.013559282011008
 223    -0.023631260729516
 224     -0.03361965552176
 225     0.078361235625921
 226    -0.0093297169054159
 227    -0.0042780078747012
 228    -0.057093288959887
 229    0.0013358846514134
 230    -0.00068294708452902
 231    0.00058861457760654
 232    -0.0013032128467889
 233    0.00050410113935841
 234    0.0010869267103935
 235    -0.00062544340823779
 236    -0.016056608720511
 237    -0.0012742129787656
 238    -0.0025743809492021
 239    -0.0016879354196756
 240    -0.00046922170786885
 241     0.006696036795498
 242    0.0015827740339319
 243    -0.0021035192311078
 244    -0.00038516107463916
 245     0.001033665086773
 246     0.041971591242252
 247    0.0077454414060922
 248    0.0024423789369636
 249    -0.00062071487927584
 250    -0.0026614636672876
 251    -0.014201791252463
 252    -0.025275025903703
 253    -0.033743742554775
 254     0.023815691924511
 255     0.010431313065656
 256    -0.075061980444424
 257     -0.01424641117386
 258    -0.013183949142251
 259     0.053978089964034
 260    0.00098029980966891
 261    9.0015137968778e-05
 262    0.0011888714528741
 263    -0.00041572194968832
 264    0.00086812452795173
 265      0.03819148054342
 266    0.0072471109171232
 267    -0.00097624557141175
 268    -0.001903313949586
 269    -0.0026288556407342
 270    -0.019240489416569
 271    -0.0018949468290449
 272    0.00086641768259286
 273    -0.002313184804567
 274    0.0023085623256115
 275      0.01253299238247
 276     0.002928622659161
 277    0.00096105961773399
 278    0.0005425005471909
 279    0.0021220357792543
 280    -0.014256616198536
 281    -0.025735743580711
 282    -0.034022117820696
 283    -0.040238306802828
 284    -0.054611288882241
 285     -0.04142698017965
 286     0.034399853011371
 287     0.036112411016412
 288     0.028564292061413
 289    0.0014212409734819
 290    -0.00044556680359653
 291    0.00087088327963092
 292    -0.00021069272202515
 293    0.00054512068017863
 294     0.038356726528912
 295    0.0073147644348068
 296    0.00037401878893159
 297    -0.0006587818886702
 298    -0.0033052003897688
 299     0.011690566019693
 300    0.0028163295410913
 301    0.00068262641217936
 302    0.00028906595707643
 303    0.0022750748809644
 304    -0.018752184448464
 305    -0.0018400275483206
 306     0.003171992329812
 307    0.00011153094776352
 308    0.0011110771888576
 309    -0.013482086977358
 310    -0.023170514718027
 311    -0.033550484337122
 312     0.016936754793666
 313    -0.071452398817082
 314     0.027988680143741
 315    -0.0094067237859198
 316     0.049747420138945
 317     -0.02580575635762
 318    -0.00053066831238567
 319    8.4077112078386e-05
 320    0.00084100530681704
 321    -0.0016305353541233
 322    -0.00055115922496595
 323     0.043176237529244
 324    0.0078747754581245
 325    0.00034306258709327
 326    -0.0035634585571466
 327    -0.0011120376492706
 328    0.0022629436172305
 329    0.0011282111159983
 330    0.00014445795005313
 331    0.0022991768217794
 332    -0.00074102217301653
 333    -0.012249435483462
 334    -0.00080900846359797
 335    0.00056191187655317
 336    0.0020380045179349
 337    -0.0019908024412738
 338     0.036002760829008
 339      0.16935602771926
 340      0.11001880223881
 341    -0.044408835555861
 342     0.071751614101747
 343     0.054465913277915
 344     0.039141304274024