[Molden Format]
made by pyscf v[2.1.1]
[Atoms] (AU)
Cr   1   24     1.56143912275337    -2.46507591990239    -1.82404491365355
Cr   2   24    -1.56139565905251     2.46513072196000     1.82399011159594
O   3   8     0.00002078698737     0.00002834589187    -0.00002645616574
N   4   7     5.12832174930954    -1.10581670549011    -0.60767356069801
H   5   1     6.65216855026694    -1.66292686427314    -1.66487895135981
H   6   1     5.63710405218294    -1.59213394419468     1.18765885421890
H   7   1     5.20084187906585     0.81566059741989    -0.65509245834172
N   8   7     1.71230729763415    -0.02251608677419    -4.99594076510539
H   9   1     0.29795878723855     1.27247165241550    -4.90823668593820
H   10   1     1.50271021425414    -0.85583806455427    -6.73026148236459
H   11   1     3.34039895052705     0.99863710888315    -5.18656310846864
N   12   7     1.41057094787259    -4.90763575303059     1.34785282752440
H   13   1     1.64193389675534    -6.79355407945465     0.97314659318890
H   14   1    -0.29048681014202    -4.81040367474334     2.24006056107205
H   15   1     2.72468082571676    -4.56691435331926     2.71738081369757
N   16   7    -2.00544350380280    -3.82433513431467    -3.04041437688297
H   17   1    -2.87205678671934    -5.05516478184926    -1.83221042023780
H   18   1    -2.03637832046193    -4.76397121413665    -4.73247136936628
H   19   1    -3.24475802163669    -2.37551046050250    -3.28123540501917
N   20   7     3.37923471211299    -5.33493873459111    -3.94755661599306
H   21   1     4.17102617885350    -4.76109883042731    -5.61685374703210
H   22   1     2.26176595533881    -6.82326057413281    -4.47610923358166
H   23   1     4.85383336053810    -6.19899521806112    -3.03922195969837
N   24   7    -5.12827828560868     1.10587339727385     0.60762064836653
H   25   1    -5.15408816501799    -0.81544705836782     0.54662784797006
H   26   1    -5.69743166898356     1.68113626520945    -1.14337690194197
H   27   1    -6.63528195761783     1.56841410187914     1.73267665553083
N   28   7    -1.71226383393328     0.02257088883181     4.99588785277390
H   29   1    -1.62991523860311     0.86667375415253     6.73575491620870
H   30   1    -0.22416876152653    -1.19157625647512     4.98456461383551
H   31   1    -3.28782110056328    -1.08746368536834     5.11339858210385
N   32   7     2.00548696750367     3.82438993637228     3.04035957482536
H   33   1     2.05186651577887     4.68410571893416     4.77402266739321
H   34   1     2.83712330958063     5.12208376337235     1.87805706574587
H   35   1     3.26582090902109     2.38241174030942     3.19051154350492
N   36   7    -1.41052748417173     4.90769055508820    -1.34790762958202
H   37   1    -1.75003190025884     6.78104976168840    -0.99229329828299
H   38   1    -2.65834387984003     4.49309409198925    -2.75785496783350
H   39   1     0.32278033988471     4.89894112313146    -2.18344058692784
N   40   7    -3.37919124841212     5.33499353664873     3.94750181393545
H   41   1    -2.26357064378777     6.83195331430581     4.45515784003860
H   42   1    -4.15358022727151     4.76963661305810     5.62761006813313
H   43   1    -4.86681766873998     6.18449345978121     3.04686590187224
[GTO]
1 0
 s    6 1.00
          51528.086349  0.0017695545768669
          7737.2103487   0.013556436258096
           1760.374847   0.067162645785071
          496.87706544    0.23295905918518
          161.46520598    0.47040576982722
          55.466352268    0.35733072606876
 s    3 1.00
          107.54732999   -0.10605255446629
          12.408671897    0.62543981484169
          5.0423628826    0.44878820793655
 s    3 1.00
          8.5461640165   -0.21819012081133
          1.3900441221    0.70422525667731
         0.56066602876    0.42488555412558
 s    1 1.00
        0.071483705972                   1
 s    1 1.00
        0.028250687604                   1
 p    5 1.00
          640.48536096  0.0093555063746755
          150.69711194   0.068993338492216
          47.503755296     0.2634118959318
          16.934120165    0.51034501651775
           6.240968059    0.33195512953954
 p    3 1.00
          3.0885463206    0.32917682676976
          1.1791047769    0.55491385190365
         0.43369774432    0.23818412855984
 p    1 1.00
              0.120675                   1
 d    4 1.00
          27.559479426   0.036950140313562
          7.4687020327    0.18821519783039
          2.4345903574    0.44641244239929
         0.78244754808     0.5681617303244
 d    1 1.00
         0.21995774311                   1
 f    1 1.00
                 1.147                   1

2 0
 s    6 1.00
          51528.086349  0.0017695545768669
          7737.2103487   0.013556436258096
           1760.374847   0.067162645785071
          496.87706544    0.23295905918518
          161.46520598    0.47040576982722
          55.466352268    0.35733072606876
 s    3 1.00
          107.54732999   -0.10605255446629
          12.408671897    0.62543981484169
          5.0423628826    0.44878820793655
 s    3 1.00
          8.5461640165   -0.21819012081133
          1.3900441221    0.70422525667731
         0.56066602876    0.42488555412558
 s    1 1.00
        0.071483705972                   1
 s    1 1.00
        0.028250687604                   1
 p    5 1.00
          640.48536096  0.0093555063746755
          150.69711194   0.068993338492216
          47.503755296     0.2634118959318
          16.934120165    0.51034501651775
           6.240968059    0.33195512953954
 p    3 1.00
          3.0885463206    0.32917682676976
          1.1791047769    0.55491385190365
         0.43369774432    0.23818412855984
 p    1 1.00
              0.120675                   1
 d    4 1.00
          27.559479426   0.036950140313562
          7.4687020327    0.18821519783039
          2.4345903574    0.44641244239929
         0.78244754808     0.5681617303244
 d    1 1.00
         0.21995774311                   1
 f    1 1.00
                 1.147                   1

3 0
 s    5 1.00
          2266.1767785  -0.0053893503921743
          340.87010191   -0.04023472138896
          77.363135167   -0.18008184205526
           21.47964494   -0.46828857657651
          6.6589433124   -0.44692617160187
 s    1 1.00
         0.80975975668                   1
 s    1 1.00
         0.25530772234                   1
 p    3 1.00
          17.721504317   0.062630248763161
           3.863550544    0.33331138482352
          1.0480920883    0.74148638308122
 p    1 1.00
         0.27641544411                   1
 d    1 1.00
                   1.2                   1

4 0
 s    5 1.00
          1712.8415853  -0.0054477995804909
          257.64812677  -0.040627174632423
          58.458245853   -0.18111962250584
          16.198367905   -0.46843975563173
          5.0052600809   -0.44616846289231
 s    1 1.00
         0.58731856571                   1
 s    1 1.00
         0.18764592253                   1
 p    3 1.00
          13.571470233  -0.058848116969522
          2.9257372874   -0.32024624762471
         0.79927750754   -0.75328226520436
 p    1 1.00
         0.21954348034                   1
 d    1 1.00
                     1                   1

5 0
 s    3 1.00
             13.010701   0.033485484812989
             1.9622572    0.23472187088125
            0.44453796    0.81377028525955
 s    1 1.00
            0.12194962                   1
 p    1 1.00
                   0.8                   1

6 0
 s    3 1.00
             13.010701   0.033485484812989
             1.9622572    0.23472187088125
            0.44453796    0.81377028525955
 s    1 1.00
            0.12194962                   1
 p    1 1.00
                   0.8                   1

7 0
 s    3 1.00
             13.010701   0.033485484812989
             1.9622572    0.23472187088125
            0.44453796    0.81377028525955
 s    1 1.00
            0.12194962                   1
 p    1 1.00
                   0.8                   1

8 0
 s    5 1.00
          1712.8415853  -0.0054477995804909
          257.64812677  -0.040627174632423
          58.458245853   -0.18111962250584
          16.198367905   -0.46843975563173
          5.0052600809   -0.44616846289231
 s    1 1.00
         0.58731856571                   1
 s    1 1.00
         0.18764592253                   1
 p    3 1.00
          13.571470233  -0.058848116969522
          2.9257372874   -0.32024624762471
         0.79927750754   -0.75328226520436
 p    1 1.00
         0.21954348034                   1
 d    1 1.00
                     1                   1

9 0
 s    3 1.00
             13.010701   0.033485484812989
             1.9622572    0.23472187088125
            0.44453796    0.81377028525955
 s    1 1.00
            0.12194962                   1
 p    1 1.00
                   0.8                   1

10 0
 s    3 1.00
             13.010701   0.033485484812989
             1.9622572    0.23472187088125
            0.44453796    0.81377028525955
 s    1 1.00
            0.12194962                   1
 p    1 1.00
                   0.8                   1

11 0
 s    3 1.00
             13.010701   0.033485484812989
             1.9622572    0.23472187088125
            0.44453796    0.81377028525955
 s    1 1.00
            0.12194962                   1
 p    1 1.00
                   0.8                   1

12 0
 s    5 1.00
          1712.8415853  -0.0054477995804909
          257.64812677  -0.040627174632423
          58.458245853   -0.18111962250584
          16.198367905   -0.46843975563173
          5.0052600809   -0.44616846289231
 s    1 1.00
         0.58731856571                   1
 s    1 1.00
         0.18764592253                   1
 p    3 1.00
          13.571470233  -0.058848116969522
          2.9257372874   -0.32024624762471
         0.79927750754   -0.75328226520436
 p    1 1.00
         0.21954348034                   1
 d    1 1.00
                     1                   1

13 0
 s    3 1.00
             13.010701   0.033485484812989
             1.9622572    0.23472187088125
            0.44453796    0.81377028525955
 s    1 1.00
            0.12194962                   1
 p    1 1.00
                   0.8                   1

14 0
 s    3 1.00
             13.010701   0.033485484812989
             1.9622572    0.23472187088125
            0.44453796    0.81377028525955
 s    1 1.00
            0.12194962                   1
 p    1 1.00
                   0.8                   1

15 0
 s    3 1.00
             13.010701   0.033485484812989
             1.9622572    0.23472187088125
            0.44453796    0.81377028525955
 s    1 1.00
            0.12194962                   1
 p    1 1.00
                   0.8                   1

16 0
 s    5 1.00
          1712.8415853  -0.0054477995804909
          257.64812677  -0.040627174632423
          58.458245853   -0.18111962250584
          16.198367905   -0.46843975563173
          5.0052600809   -0.44616846289231
 s    1 1.00
         0.58731856571                   1
 s    1 1.00
         0.18764592253                   1
 p    3 1.00
          13.571470233  -0.058848116969522
          2.9257372874   -0.32024624762471
         0.79927750754   -0.75328226520436
 p    1 1.00
         0.21954348034                   1
 d    1 1.00
                     1                   1

17 0
 s    3 1.00
             13.010701   0.033485484812989
             1.9622572    0.23472187088125
            0.44453796    0.81377028525955
 s    1 1.00
            0.12194962                   1
 p    1 1.00
                   0.8                   1

18 0
 s    3 1.00
             13.010701   0.033485484812989
             1.9622572    0.23472187088125
            0.44453796    0.81377028525955
 s    1 1.00
            0.12194962                   1
 p    1 1.00
                   0.8                   1

19 0
 s    3 1.00
             13.010701   0.033485484812989
             1.9622572    0.23472187088125
            0.44453796    0.81377028525955
 s    1 1.00
            0.12194962                   1
 p    1 1.00
                   0.8                   1

20 0
 s    5 1.00
          1712.8415853  -0.0054477995804909
          257.64812677  -0.040627174632423
          58.458245853   -0.18111962250584
          16.198367905   -0.46843975563173
          5.0052600809   -0.44616846289231
 s    1 1.00
         0.58731856571                   1
 s    1 1.00
         0.18764592253                   1
 p    3 1.00
          13.571470233  -0.058848116969522
          2.9257372874   -0.32024624762471
         0.79927750754   -0.75328226520436
 p    1 1.00
         0.21954348034                   1
 d    1 1.00
                     1                   1

21 0
 s    3 1.00
             13.010701   0.033485484812989
             1.9622572    0.23472187088125
            0.44453796    0.81377028525955
 s    1 1.00
            0.12194962                   1
 p    1 1.00
                   0.8                   1

22 0
 s    3 1.00
             13.010701   0.033485484812989
             1.9622572    0.23472187088125
            0.44453796    0.81377028525955
 s    1 1.00
            0.12194962                   1
 p    1 1.00
                   0.8                   1

23 0
 s    3 1.00
             13.010701   0.033485484812989
             1.9622572    0.23472187088125
            0.44453796    0.81377028525955
 s    1 1.00
            0.12194962                   1
 p    1 1.00
                   0.8                   1

24 0
 s    5 1.00
          1712.8415853  -0.0054477995804909
          257.64812677  -0.040627174632423
          58.458245853   -0.18111962250584
          16.198367905   -0.46843975563173
          5.0052600809   -0.44616846289231
 s    1 1.00
         0.58731856571                   1
 s    1 1.00
         0.18764592253                   1
 p    3 1.00
          13.571470233  -0.058848116969522
          2.9257372874   -0.32024624762471
         0.79927750754   -0.75328226520436
 p    1 1.00
         0.21954348034                   1
 d    1 1.00
                     1                   1

25 0
 s    3 1.00
             13.010701   0.033485484812989
             1.9622572    0.23472187088125
            0.44453796    0.81377028525955
 s    1 1.00
            0.12194962                   1
 p    1 1.00
                   0.8                   1

26 0
 s    3 1.00
             13.010701   0.033485484812989
             1.9622572    0.23472187088125
            0.44453796    0.81377028525955
 s    1 1.00
            0.12194962                   1
 p    1 1.00
                   0.8                   1

27 0
 s    3 1.00
             13.010701   0.033485484812989
             1.9622572    0.23472187088125
            0.44453796    0.81377028525955
 s    1 1.00
            0.12194962                   1
 p    1 1.00
                   0.8                   1

28 0
 s    5 1.00
          1712.8415853  -0.0054477995804909
          257.64812677  -0.040627174632423
          58.458245853   -0.18111962250584
          16.198367905   -0.46843975563173
          5.0052600809   -0.44616846289231
 s    1 1.00
         0.58731856571                   1
 s    1 1.00
         0.18764592253                   1
 p    3 1.00
          13.571470233  -0.058848116969522
          2.9257372874   -0.32024624762471
         0.79927750754   -0.75328226520436
 p    1 1.00
         0.21954348034                   1
 d    1 1.00
                     1                   1

29 0
 s    3 1.00
             13.010701   0.033485484812989
             1.9622572    0.23472187088125
            0.44453796    0.81377028525955
 s    1 1.00
            0.12194962                   1
 p    1 1.00
                   0.8                   1

30 0
 s    3 1.00
             13.010701   0.033485484812989
             1.9622572    0.23472187088125
            0.44453796    0.81377028525955
 s    1 1.00
            0.12194962                   1
 p    1 1.00
                   0.8                   1

31 0
 s    3 1.00
             13.010701   0.033485484812989
             1.9622572    0.23472187088125
            0.44453796    0.81377028525955
 s    1 1.00
            0.12194962                   1
 p    1 1.00
                   0.8                   1

32 0
 s    5 1.00
          1712.8415853  -0.0054477995804909
          257.64812677  -0.040627174632423
          58.458245853   -0.18111962250584
          16.198367905   -0.46843975563173
          5.0052600809   -0.44616846289231
 s    1 1.00
         0.58731856571                   1
 s    1 1.00
         0.18764592253                   1
 p    3 1.00
          13.571470233  -0.058848116969522
          2.9257372874   -0.32024624762471
         0.79927750754   -0.75328226520436
 p    1 1.00
         0.21954348034                   1
 d    1 1.00
                     1                   1

33 0
 s    3 1.00
             13.010701   0.033485484812989
             1.9622572    0.23472187088125
            0.44453796    0.81377028525955
 s    1 1.00
            0.12194962                   1
 p    1 1.00
                   0.8                   1

34 0
 s    3 1.00
             13.010701   0.033485484812989
             1.9622572    0.23472187088125
            0.44453796    0.81377028525955
 s    1 1.00
            0.12194962                   1
 p    1 1.00
                   0.8                   1

35 0
 s    3 1.00
             13.010701   0.033485484812989
             1.9622572    0.23472187088125
            0.44453796    0.81377028525955
 s    1 1.00
            0.12194962                   1
 p    1 1.00
                   0.8                   1

36 0
 s    5 1.00
          1712.8415853  -0.0054477995804909
          257.64812677  -0.040627174632423
          58.458245853   -0.18111962250584
          16.198367905   -0.46843975563173
          5.0052600809   -0.44616846289231
 s    1 1.00
         0.58731856571                   1
 s    1 1.00
         0.18764592253                   1
 p    3 1.00
          13.571470233  -0.058848116969522
          2.9257372874   -0.32024624762471
         0.79927750754   -0.75328226520436
 p    1 1.00
         0.21954348034                   1
 d    1 1.00
                     1                   1

37 0
 s    3 1.00
             13.010701   0.033485484812989
             1.9622572    0.23472187088125
            0.44453796    0.81377028525955
 s    1 1.00
            0.12194962                   1
 p    1 1.00
                   0.8                   1

38 0
 s    3 1.00
             13.010701   0.033485484812989
             1.9622572    0.23472187088125
            0.44453796    0.81377028525955
 s    1 1.00
            0.12194962                   1
 p    1 1.00
                   0.8                   1

39 0
 s    3 1.00
             13.010701   0.033485484812989
             1.9622572    0.23472187088125
            0.44453796    0.81377028525955
 s    1 1.00
            0.12194962                   1
 p    1 1.00
                   0.8                   1

40 0
 s    5 1.00
          1712.8415853  -0.0054477995804909
          257.64812677  -0.040627174632423
          58.458245853   -0.18111962250584
          16.198367905   -0.46843975563173
          5.0052600809   -0.44616846289231
 s    1 1.00
         0.58731856571                   1
 s    1 1.00
         0.18764592253                   1
 p    3 1.00
          13.571470233  -0.058848116969522
          2.9257372874   -0.32024624762471
         0.79927750754   -0.75328226520436
 p    1 1.00
         0.21954348034                   1
 d    1 1.00
                     1                   1

41 0
 s    3 1.00
             13.010701   0.033485484812989
             1.9622572    0.23472187088125
            0.44453796    0.81377028525955
 s    1 1.00
            0.12194962                   1
 p    1 1.00
                   0.8                   1

42 0
 s    3 1.00
             13.010701   0.033485484812989
             1.9622572    0.23472187088125
            0.44453796    0.81377028525955
 s    1 1.00
            0.12194962                   1
 p    1 1.00
                   0.8                   1

43 0
 s    3 1.00
             13.010701   0.033485484812989
             1.9622572    0.23472187088125
            0.44453796    0.81377028525955
 s    1 1.00
            0.12194962                   1
 p    1 1.00
                   0.8                   1

[5d]
[7f]
[9g]

[MO]
 Sym= A
 Ene=               0
 Spin= Alpha
 Occup=    1.00000
   1    2.1898608855338e-05
   2    -4.8437974423055e-05
   3    0.00039053162203486
   4    0.00013245261252606
   5    -6.9529059342471e-05
   6    0.00012515734928197
   7    1.5032568270486e-06
   8    -8.0286489845029e-05
   9    -0.00057305229067484
  10    8.1574076766078e-05
  11    0.00040065548779968
  12    -0.00036598600784359
  13    -0.00016669984215308
  14    0.00017543323573776
  15    -0.0004714749368807
  16    0.0002949340823068
  17    0.00058156446159999
  18    0.00047488126651722
  19    0.00026955214549071
  20    -0.00088173919172006
  21    0.00055717895388758
  22    0.0010778774520033
  23    0.00089161346050174
  24    0.00049905206617606
  25    3.3639934139285e-05
  26    -2.1174019554414e-05
  27    -1.6052754712977e-05
  28    1.1112426516503e-05
  29    4.5068381974235e-06
  30    3.505986669459e-05
  31    -3.0334698657986e-05
  32    -3.3692029961314e-05
  33    5.8867363468056e-05
  34    -0.00063542102349065
  35    -0.00014910832918678
  36    -1.4822327796689e-05
  37    9.1331127186526e-05
  38    -5.1879538984047e-05
  39    -4.899699642239e-05
  40    -0.00046171162871343
  41    0.00026788747528424
  42    0.00029541130378036
  43    -0.00055157904802262
  44    -0.00077073339975567
  45    0.00050170586736496
  46     0.072480864261134
  47    -0.046858594442466
  48    -0.092062270989276
  49    -0.081375668717424
  50    -0.043069311075146
  51     0.059581992591569
  52    -0.038485425988554
  53    -0.075592767870394
  54    -0.066670140848749
  55    -0.035386141739614
  56    0.00042183376009321
  57    -0.00032631267716818
  58    -0.00015520965997377
  59    0.00019134758297929
  60    -7.6408817102388e-05
  61    0.00038025296730646
  62    -0.00022794330735354
  63    -0.00050034306182958
  64    -0.00096266065799301
  65    -0.00070120163515675
  66    0.00037688548573081
  67    2.3343028001441e-05
  68    -0.00037055621569402
  69    0.00035118927741577
  70    0.00035785599108431
  71    -0.00021176518364009
  72    0.00026740070946161
  73    -0.00016275872936796
  74    -0.00035566044707365
  75    -0.00029699604522769
  76    -0.00014492749215958
  77    -0.00089735812818873
  78    -0.00018840181502564
  79    -0.0013348514294027
  80    -0.0004546112013462
  81    0.0030455674285264
  82    0.0019253954518887
  83    0.0016305506888725
  84    -0.0021094019429657
  85    -0.0021080851277504
  86    -1.5181494232164e-05
  87    -0.00013796222084547
  88    5.7662066785822e-05
  89    0.00016918385200951
  90    -7.8172487069913e-05
  91    0.0014023712218405
  92    5.7881898782859e-05
  93    -8.3087206817172e-05
  94      -7.112444103e-05
  95    -4.1095109265591e-05
  96    -0.0006679034722319
  97    0.00048894461807155
  98    -9.8341155973691e-05
  99    -7.6459351224758e-05
 100    -2.804271696112e-07
 101    -0.002291703995296
 102    -0.0011970319947211
 103    0.00012635123078674
 104    0.00022478073970734
 105    -0.00010527308780146
 106    0.0007616120770284
 107    -0.0001537457279582
 108    -0.00013833218336369
 109    0.0018514081082948
 110    -0.0030945084155059
 111    -0.00018679038832695
 112    -0.00093242719059408
 113     0.001897097198397
 114    0.0015642151883325
 115    -0.00014741916752941
 116    8.1378186614667e-06
 117    -0.00010602570200708
 118     9.94428906344e-06
 119    -0.00011739463626816
 120    0.0026500643833268
 121    0.0022635895145737
 122     0.000167215794573
 123    -0.00010893318247606
 124    0.00025903370602937
 125    -0.0007154510707209
 126    -0.00012178632375128
 127    -1.0371534709616e-05
 128    0.00013011657196186
 129    -4.424167655809e-05
 130    -0.00011351179822696
 131    -1.4110339394883e-05
 132    -4.6159693490769e-05
 133    4.5121382262642e-05
 134    -0.00014829132010211
 135    0.00087612180489144
 136    -6.3721517623504e-06
 137    0.0012351038312089
 138    0.0021658216009596
 139    -0.0016319350685445
 140    -0.0027034486696276
 141    -0.0012442777098862
 142    0.0025933509482296
 143    0.0018716796611808
 144    8.0139952691988e-05
 145    -3.8309405530553e-05
 146    -2.5050717895195e-05
 147    0.00021927440901045
 148    4.9431394941862e-05
 149    -0.0015533733024169
 150    -6.0617383362764e-05
 151    -4.3480807141849e-05
 152    -6.7107731029012e-05
 153    9.8646189894115e-05
 154     0.002473792253006
 155    0.0012365492521634
 156    0.00023495183121124
 157    0.00014189480257313
 158    -8.9823177273769e-05
 159    0.00046334107610143
 160    -0.00053697210771894
 161    -4.6528137513547e-05
 162    -6.8368957309636e-05
 163    0.00010556327350216
 164    -0.00071098376657117
 165    0.00027832085747775
 166    -0.0003386879917476
 167    -0.0027625806419095
 168    0.0018557931079219
 169    0.00046616031658657
 170    0.0011948508688849
 171    -0.0018628383525694
 172    -0.001707326550295
 173    0.00012393115544746
 174    -1.0997252810669e-05
 175    0.00012964937319508
 176    -4.1372241659464e-05
 177    8.2367561672543e-05
 178    -1.762499659868e-05
 179    2.3745249243782e-05
 180    0.00011033683637476
 181    3.944253142782e-05
 182    0.00010883892052886
 183    0.00068014396551194
 184    5.8313281467651e-05
 185    0.00013027233676509
 186    -1.7055500243902e-05
 187    -2.2375248885408e-05
 188    -0.0022636822678238
 189    -0.0018861923449761
 190    -0.00018810123900355
 191    9.3771921794661e-05
 192    -0.00019238029852051
 193    -1.2763275928159e-05
 194    -3.2947321428233e-05
 195    7.0846088222847e-06
 196    -0.00020331636968177
 197    -0.00030921672054839
 198    0.0002145404554095
 199    0.00021219757584446
 200    0.0003157051033487
 201    -0.0001697725360839
 202    6.7603272785564e-06
 203    -9.3999675060428e-06
 204    3.7272687421704e-07
 205    1.2128523548153e-05
 206    -9.4470439827466e-07
 207    0.00018857650342586
 208    8.6147325564502e-05
 209    -2.3309864560593e-06
 210    -1.8159333936455e-05
 211    2.3815334951018e-05
 212    -0.00015918308834919
 213    -5.1750154165561e-05
 214    -2.3919742690707e-05
 215    -5.9073993996016e-06
 216    -1.3836959860376e-05
 217    -7.2848749549562e-05
 218    -5.8112014518672e-07
 219    1.9072199649852e-05
 220    1.0581703095999e-05
 221    -5.3953688525626e-06
 222    -0.032918934481011
 223      -0.2444219413164
 224     -0.13935081863031
 225      0.13095956589982
 226      0.05035475492975
 227     0.046136431162268
 228     -0.10062044403697
 229    -0.044361068469478
 230    -0.036918305900491
 231    0.00020473719255364
 232    -0.00011634550484841
 233    -0.00031754096703698
 234    0.00014696364192617
 235    -9.6539260741359e-05
 236    -0.039852454617242
 237     0.010290566912053
 238    -0.0042273267641175
 239    -0.007988695753118
 240    -0.0010594345316959
 241    -0.028949374535521
 242     0.010203043532058
 243    -0.0057668124254685
 244    0.00060041647248317
 245    -0.006084607406138
 246    -0.030571274359026
 247    0.0090681685800172
 248    -0.0081843585614911
 249    -0.00035777519412888
 250    0.0015877687812708
 251     0.033228553430963
 252      0.24656387353118
 253      0.14056350638131
 254    -0.0065664194275068
 255    -0.091674697216068
 256      0.11720349075569
 257    0.00036481705189064
 258     0.075328651425872
 259     -0.08891485590393
 260    -9.6553024201057e-05
 261    -7.340757941222e-05
 262    -0.0002000982238863
 263    -0.000182212757995
 264    -0.00034687850785988
 265      0.02964558359693
 266    -0.0095793230635881
 267    -2.1341526105512e-06
 268    0.00066457950904029
 269    -0.008296842501773
 270     0.042044283378818
 271    -0.0099777941814128
 272    -0.0052026142085034
 273    0.0066888328275316
 274    -0.0038113039079405
 275     0.029487659394729
 276    -0.010512003225815
 277    0.0048824584297385
 278    0.0054664862138102
 279    -0.0041047629098621
 280    -0.033097402037056
 281     -0.24496447371105
 282     -0.13968675556314
 283     -0.13216741253565
 284    -0.051468384021772
 285    -0.042548440052172
 286      0.10595848073724
 287     0.034374221918283
 288     0.031984017100315
 289    0.00032508590667973
 290    -6.8523090725896e-05
 291    -0.00015321541095888
 292    -0.00021512651092019
 293    0.00024613535898313
 294    -0.029902028647856
 295    0.0093662841362315
 296    0.0043048771818728
 297    0.0039082851132621
 298    0.0059417967147526
 299    -0.028370907718067
 300     0.010684744752373
 301    0.0059514520655352
 302    0.0055057986565445
 303    -0.0016747173032024
 304    -0.042114668660595
 305    0.0098258721361383
 306    0.0082705918101248
 307    -0.0034789764954304
 308    0.0023001804679153
 309     0.033105811409771
 310      0.24617963303725
 311      0.14041127068332
 312    0.0048584517451126
 313     0.088804045275931
 314     -0.11913130285589
 315    -0.0073145237123034
 316    -0.067447348243948
 317     0.095178228686491
 318    0.00018630884198034
 319    -0.00030728636443176
 320    -7.2393575340092e-05
 321    4.3519882375484e-06
 322    -0.00010323484803649
 323     0.031217433015855
 324    -0.0088071511180686
 325    0.00075077041485224
 326    -0.0079239343233929
 327    0.0028112997990826
 328     0.030180932654661
 329    -0.010575180994239
 330    0.0039098656981895
 331    -0.0018286936994348
 332    0.0073830628312017
 333     0.038480263180928
 334    -0.010280276440901
 335    -0.0060702276797495
 336    -0.0031323711004264
 337    0.0060142473829177
 338    -0.00026171238581774
 339    -0.002007977814889