[Molden Format]
made by pyscf v[2.1.1]
[Atoms] (AU)
Cr   1   24     1.56143912275337    -2.46507591990239    -1.82404491365355
Cr   2   24    -1.56139565905251     2.46513072196000     1.82399011159594
O   3   8     0.00002078698737     0.00002834589187    -0.00002645616574
N   4   7     5.12832174930954    -1.10581670549011    -0.60767356069801
H   5   1     6.65216855026694    -1.66292686427314    -1.66487895135981
H   6   1     5.63710405218294    -1.59213394419468     1.18765885421890
H   7   1     5.20084187906585     0.81566059741989    -0.65509245834172
N   8   7     1.71230729763415    -0.02251608677419    -4.99594076510539
H   9   1     0.29795878723855     1.27247165241550    -4.90823668593820
H   10   1     1.50271021425414    -0.85583806455427    -6.73026148236459
H   11   1     3.34039895052705     0.99863710888315    -5.18656310846864
N   12   7     1.41057094787259    -4.90763575303059     1.34785282752440
H   13   1     1.64193389675534    -6.79355407945465     0.97314659318890
H   14   1    -0.29048681014202    -4.81040367474334     2.24006056107205
H   15   1     2.72468082571676    -4.56691435331926     2.71738081369757
N   16   7    -2.00544350380280    -3.82433513431467    -3.04041437688297
H   17   1    -2.87205678671934    -5.05516478184926    -1.83221042023780
H   18   1    -2.03637832046193    -4.76397121413665    -4.73247136936628
H   19   1    -3.24475802163669    -2.37551046050250    -3.28123540501917
N   20   7     3.37923471211299    -5.33493873459111    -3.94755661599306
H   21   1     4.17102617885350    -4.76109883042731    -5.61685374703210
H   22   1     2.26176595533881    -6.82326057413281    -4.47610923358166
H   23   1     4.85383336053810    -6.19899521806112    -3.03922195969837
N   24   7    -5.12827828560868     1.10587339727385     0.60762064836653
H   25   1    -5.15408816501799    -0.81544705836782     0.54662784797006
H   26   1    -5.69743166898356     1.68113626520945    -1.14337690194197
H   27   1    -6.63528195761783     1.56841410187914     1.73267665553083
N   28   7    -1.71226383393328     0.02257088883181     4.99588785277390
H   29   1    -1.62991523860311     0.86667375415253     6.73575491620870
H   30   1    -0.22416876152653    -1.19157625647512     4.98456461383551
H   31   1    -3.28782110056328    -1.08746368536834     5.11339858210385
N   32   7     2.00548696750367     3.82438993637228     3.04035957482536
H   33   1     2.05186651577887     4.68410571893416     4.77402266739321
H   34   1     2.83712330958063     5.12208376337235     1.87805706574587
H   35   1     3.26582090902109     2.38241174030942     3.19051154350492
N   36   7    -1.41052748417173     4.90769055508820    -1.34790762958202
H   37   1    -1.75003190025884     6.78104976168840    -0.99229329828299
H   38   1    -2.65834387984003     4.49309409198925    -2.75785496783350
H   39   1     0.32278033988471     4.89894112313146    -2.18344058692784
N   40   7    -3.37919124841212     5.33499353664873     3.94750181393545
H   41   1    -2.26357064378777     6.83195331430581     4.45515784003860
H   42   1    -4.15358022727151     4.76963661305810     5.62761006813313
H   43   1    -4.86681766873998     6.18449345978121     3.04686590187224
[GTO]
1 0
 s    6 1.00
          51528.086349  0.0017695545768669
          7737.2103487   0.013556436258096
           1760.374847   0.067162645785071
          496.87706544    0.23295905918518
          161.46520598    0.47040576982722
          55.466352268    0.35733072606876
 s    3 1.00
          107.54732999   -0.10605255446629
          12.408671897    0.62543981484169
          5.0423628826    0.44878820793655
 s    3 1.00
          8.5461640165   -0.21819012081133
          1.3900441221    0.70422525667731
         0.56066602876    0.42488555412558
 s    1 1.00
        0.071483705972                   1
 s    1 1.00
        0.028250687604                   1
 p    5 1.00
          640.48536096  0.0093555063746755
          150.69711194   0.068993338492216
          47.503755296     0.2634118959318
          16.934120165    0.51034501651775
           6.240968059    0.33195512953954
 p    3 1.00
          3.0885463206    0.32917682676976
          1.1791047769    0.55491385190365
         0.43369774432    0.23818412855984
 p    1 1.00
              0.120675                   1
 d    4 1.00
          27.559479426   0.036950140313562
          7.4687020327    0.18821519783039
          2.4345903574    0.44641244239929
         0.78244754808     0.5681617303244
 d    1 1.00
         0.21995774311                   1
 f    1 1.00
                 1.147                   1

2 0
 s    6 1.00
          51528.086349  0.0017695545768669
          7737.2103487   0.013556436258096
           1760.374847   0.067162645785071
          496.87706544    0.23295905918518
          161.46520598    0.47040576982722
          55.466352268    0.35733072606876
 s    3 1.00
          107.54732999   -0.10605255446629
          12.408671897    0.62543981484169
          5.0423628826    0.44878820793655
 s    3 1.00
          8.5461640165   -0.21819012081133
          1.3900441221    0.70422525667731
         0.56066602876    0.42488555412558
 s    1 1.00
        0.071483705972                   1
 s    1 1.00
        0.028250687604                   1
 p    5 1.00
          640.48536096  0.0093555063746755
          150.69711194   0.068993338492216
          47.503755296     0.2634118959318
          16.934120165    0.51034501651775
           6.240968059    0.33195512953954
 p    3 1.00
          3.0885463206    0.32917682676976
          1.1791047769    0.55491385190365
         0.43369774432    0.23818412855984
 p    1 1.00
              0.120675                   1
 d    4 1.00
          27.559479426   0.036950140313562
          7.4687020327    0.18821519783039
          2.4345903574    0.44641244239929
         0.78244754808     0.5681617303244
 d    1 1.00
         0.21995774311                   1
 f    1 1.00
                 1.147                   1

3 0
 s    5 1.00
          2266.1767785  -0.0053893503921743
          340.87010191   -0.04023472138896
          77.363135167   -0.18008184205526
           21.47964494   -0.46828857657651
          6.6589433124   -0.44692617160187
 s    1 1.00
         0.80975975668                   1
 s    1 1.00
         0.25530772234                   1
 p    3 1.00
          17.721504317   0.062630248763161
           3.863550544    0.33331138482352
          1.0480920883    0.74148638308122
 p    1 1.00
         0.27641544411                   1
 d    1 1.00
                   1.2                   1

4 0
 s    5 1.00
          1712.8415853  -0.0054477995804909
          257.64812677  -0.040627174632423
          58.458245853   -0.18111962250584
          16.198367905   -0.46843975563173
          5.0052600809   -0.44616846289231
 s    1 1.00
         0.58731856571                   1
 s    1 1.00
         0.18764592253                   1
 p    3 1.00
          13.571470233  -0.058848116969522
          2.9257372874   -0.32024624762471
         0.79927750754   -0.75328226520436
 p    1 1.00
         0.21954348034                   1
 d    1 1.00
                     1                   1

5 0
 s    3 1.00
             13.010701   0.033485484812989
             1.9622572    0.23472187088125
            0.44453796    0.81377028525955
 s    1 1.00
            0.12194962                   1
 p    1 1.00
                   0.8                   1

6 0
 s    3 1.00
             13.010701   0.033485484812989
             1.9622572    0.23472187088125
            0.44453796    0.81377028525955
 s    1 1.00
            0.12194962                   1
 p    1 1.00
                   0.8                   1

7 0
 s    3 1.00
             13.010701   0.033485484812989
             1.9622572    0.23472187088125
            0.44453796    0.81377028525955
 s    1 1.00
            0.12194962                   1
 p    1 1.00
                   0.8                   1

8 0
 s    5 1.00
          1712.8415853  -0.0054477995804909
          257.64812677  -0.040627174632423
          58.458245853   -0.18111962250584
          16.198367905   -0.46843975563173
          5.0052600809   -0.44616846289231
 s    1 1.00
         0.58731856571                   1
 s    1 1.00
         0.18764592253                   1
 p    3 1.00
          13.571470233  -0.058848116969522
          2.9257372874   -0.32024624762471
         0.79927750754   -0.75328226520436
 p    1 1.00
         0.21954348034                   1
 d    1 1.00
                     1                   1

9 0
 s    3 1.00
             13.010701   0.033485484812989
             1.9622572    0.23472187088125
            0.44453796    0.81377028525955
 s    1 1.00
            0.12194962                   1
 p    1 1.00
                   0.8                   1

10 0
 s    3 1.00
             13.010701   0.033485484812989
             1.9622572    0.23472187088125
            0.44453796    0.81377028525955
 s    1 1.00
            0.12194962                   1
 p    1 1.00
                   0.8                   1

11 0
 s    3 1.00
             13.010701   0.033485484812989
             1.9622572    0.23472187088125
            0.44453796    0.81377028525955
 s    1 1.00
            0.12194962                   1
 p    1 1.00
                   0.8                   1

12 0
 s    5 1.00
          1712.8415853  -0.0054477995804909
          257.64812677  -0.040627174632423
          58.458245853   -0.18111962250584
          16.198367905   -0.46843975563173
          5.0052600809   -0.44616846289231
 s    1 1.00
         0.58731856571                   1
 s    1 1.00
         0.18764592253                   1
 p    3 1.00
          13.571470233  -0.058848116969522
          2.9257372874   -0.32024624762471
         0.79927750754   -0.75328226520436
 p    1 1.00
         0.21954348034                   1
 d    1 1.00
                     1                   1

13 0
 s    3 1.00
             13.010701   0.033485484812989
             1.9622572    0.23472187088125
            0.44453796    0.81377028525955
 s    1 1.00
            0.12194962                   1
 p    1 1.00
                   0.8                   1

14 0
 s    3 1.00
             13.010701   0.033485484812989
             1.9622572    0.23472187088125
            0.44453796    0.81377028525955
 s    1 1.00
            0.12194962                   1
 p    1 1.00
                   0.8                   1

15 0
 s    3 1.00
             13.010701   0.033485484812989
             1.9622572    0.23472187088125
            0.44453796    0.81377028525955
 s    1 1.00
            0.12194962                   1
 p    1 1.00
                   0.8                   1

16 0
 s    5 1.00
          1712.8415853  -0.0054477995804909
          257.64812677  -0.040627174632423
          58.458245853   -0.18111962250584
          16.198367905   -0.46843975563173
          5.0052600809   -0.44616846289231
 s    1 1.00
         0.58731856571                   1
 s    1 1.00
         0.18764592253                   1
 p    3 1.00
          13.571470233  -0.058848116969522
          2.9257372874   -0.32024624762471
         0.79927750754   -0.75328226520436
 p    1 1.00
         0.21954348034                   1
 d    1 1.00
                     1                   1

17 0
 s    3 1.00
             13.010701   0.033485484812989
             1.9622572    0.23472187088125
            0.44453796    0.81377028525955
 s    1 1.00
            0.12194962                   1
 p    1 1.00
                   0.8                   1

18 0
 s    3 1.00
             13.010701   0.033485484812989
             1.9622572    0.23472187088125
            0.44453796    0.81377028525955
 s    1 1.00
            0.12194962                   1
 p    1 1.00
                   0.8                   1

19 0
 s    3 1.00
             13.010701   0.033485484812989
             1.9622572    0.23472187088125
            0.44453796    0.81377028525955
 s    1 1.00
            0.12194962                   1
 p    1 1.00
                   0.8                   1

20 0
 s    5 1.00
          1712.8415853  -0.0054477995804909
          257.64812677  -0.040627174632423
          58.458245853   -0.18111962250584
          16.198367905   -0.46843975563173
          5.0052600809   -0.44616846289231
 s    1 1.00
         0.58731856571                   1
 s    1 1.00
         0.18764592253                   1
 p    3 1.00
          13.571470233  -0.058848116969522
          2.9257372874   -0.32024624762471
         0.79927750754   -0.75328226520436
 p    1 1.00
         0.21954348034                   1
 d    1 1.00
                     1                   1

21 0
 s    3 1.00
             13.010701   0.033485484812989
             1.9622572    0.23472187088125
            0.44453796    0.81377028525955
 s    1 1.00
            0.12194962                   1
 p    1 1.00
                   0.8                   1

22 0
 s    3 1.00
             13.010701   0.033485484812989
             1.9622572    0.23472187088125
            0.44453796    0.81377028525955
 s    1 1.00
            0.12194962                   1
 p    1 1.00
                   0.8                   1

23 0
 s    3 1.00
             13.010701   0.033485484812989
             1.9622572    0.23472187088125
            0.44453796    0.81377028525955
 s    1 1.00
            0.12194962                   1
 p    1 1.00
                   0.8                   1

24 0
 s    5 1.00
          1712.8415853  -0.0054477995804909
          257.64812677  -0.040627174632423
          58.458245853   -0.18111962250584
          16.198367905   -0.46843975563173
          5.0052600809   -0.44616846289231
 s    1 1.00
         0.58731856571                   1
 s    1 1.00
         0.18764592253                   1
 p    3 1.00
          13.571470233  -0.058848116969522
          2.9257372874   -0.32024624762471
         0.79927750754   -0.75328226520436
 p    1 1.00
         0.21954348034                   1
 d    1 1.00
                     1                   1

25 0
 s    3 1.00
             13.010701   0.033485484812989
             1.9622572    0.23472187088125
            0.44453796    0.81377028525955
 s    1 1.00
            0.12194962                   1
 p    1 1.00
                   0.8                   1

26 0
 s    3 1.00
             13.010701   0.033485484812989
             1.9622572    0.23472187088125
            0.44453796    0.81377028525955
 s    1 1.00
            0.12194962                   1
 p    1 1.00
                   0.8                   1

27 0
 s    3 1.00
             13.010701   0.033485484812989
             1.9622572    0.23472187088125
            0.44453796    0.81377028525955
 s    1 1.00
            0.12194962                   1
 p    1 1.00
                   0.8                   1

28 0
 s    5 1.00
          1712.8415853  -0.0054477995804909
          257.64812677  -0.040627174632423
          58.458245853   -0.18111962250584
          16.198367905   -0.46843975563173
          5.0052600809   -0.44616846289231
 s    1 1.00
         0.58731856571                   1
 s    1 1.00
         0.18764592253                   1
 p    3 1.00
          13.571470233  -0.058848116969522
          2.9257372874   -0.32024624762471
         0.79927750754   -0.75328226520436
 p    1 1.00
         0.21954348034                   1
 d    1 1.00
                     1                   1

29 0
 s    3 1.00
             13.010701   0.033485484812989
             1.9622572    0.23472187088125
            0.44453796    0.81377028525955
 s    1 1.00
            0.12194962                   1
 p    1 1.00
                   0.8                   1

30 0
 s    3 1.00
             13.010701   0.033485484812989
             1.9622572    0.23472187088125
            0.44453796    0.81377028525955
 s    1 1.00
            0.12194962                   1
 p    1 1.00
                   0.8                   1

31 0
 s    3 1.00
             13.010701   0.033485484812989
             1.9622572    0.23472187088125
            0.44453796    0.81377028525955
 s    1 1.00
            0.12194962                   1
 p    1 1.00
                   0.8                   1

32 0
 s    5 1.00
          1712.8415853  -0.0054477995804909
          257.64812677  -0.040627174632423
          58.458245853   -0.18111962250584
          16.198367905   -0.46843975563173
          5.0052600809   -0.44616846289231
 s    1 1.00
         0.58731856571                   1
 s    1 1.00
         0.18764592253                   1
 p    3 1.00
          13.571470233  -0.058848116969522
          2.9257372874   -0.32024624762471
         0.79927750754   -0.75328226520436
 p    1 1.00
         0.21954348034                   1
 d    1 1.00
                     1                   1

33 0
 s    3 1.00
             13.010701   0.033485484812989
             1.9622572    0.23472187088125
            0.44453796    0.81377028525955
 s    1 1.00
            0.12194962                   1
 p    1 1.00
                   0.8                   1

34 0
 s    3 1.00
             13.010701   0.033485484812989
             1.9622572    0.23472187088125
            0.44453796    0.81377028525955
 s    1 1.00
            0.12194962                   1
 p    1 1.00
                   0.8                   1

35 0
 s    3 1.00
             13.010701   0.033485484812989
             1.9622572    0.23472187088125
            0.44453796    0.81377028525955
 s    1 1.00
            0.12194962                   1
 p    1 1.00
                   0.8                   1

36 0
 s    5 1.00
          1712.8415853  -0.0054477995804909
          257.64812677  -0.040627174632423
          58.458245853   -0.18111962250584
          16.198367905   -0.46843975563173
          5.0052600809   -0.44616846289231
 s    1 1.00
         0.58731856571                   1
 s    1 1.00
         0.18764592253                   1
 p    3 1.00
          13.571470233  -0.058848116969522
          2.9257372874   -0.32024624762471
         0.79927750754   -0.75328226520436
 p    1 1.00
         0.21954348034                   1
 d    1 1.00
                     1                   1

37 0
 s    3 1.00
             13.010701   0.033485484812989
             1.9622572    0.23472187088125
            0.44453796    0.81377028525955
 s    1 1.00
            0.12194962                   1
 p    1 1.00
                   0.8                   1

38 0
 s    3 1.00
             13.010701   0.033485484812989
             1.9622572    0.23472187088125
            0.44453796    0.81377028525955
 s    1 1.00
            0.12194962                   1
 p    1 1.00
                   0.8                   1

39 0
 s    3 1.00
             13.010701   0.033485484812989
             1.9622572    0.23472187088125
            0.44453796    0.81377028525955
 s    1 1.00
            0.12194962                   1
 p    1 1.00
                   0.8                   1

40 0
 s    5 1.00
          1712.8415853  -0.0054477995804909
          257.64812677  -0.040627174632423
          58.458245853   -0.18111962250584
          16.198367905   -0.46843975563173
          5.0052600809   -0.44616846289231
 s    1 1.00
         0.58731856571                   1
 s    1 1.00
         0.18764592253                   1
 p    3 1.00
          13.571470233  -0.058848116969522
          2.9257372874   -0.32024624762471
         0.79927750754   -0.75328226520436
 p    1 1.00
         0.21954348034                   1
 d    1 1.00
                     1                   1

41 0
 s    3 1.00
             13.010701   0.033485484812989
             1.9622572    0.23472187088125
            0.44453796    0.81377028525955
 s    1 1.00
            0.12194962                   1
 p    1 1.00
                   0.8                   1

42 0
 s    3 1.00
             13.010701   0.033485484812989
             1.9622572    0.23472187088125
            0.44453796    0.81377028525955
 s    1 1.00
            0.12194962                   1
 p    1 1.00
                   0.8                   1

43 0
 s    3 1.00
             13.010701   0.033485484812989
             1.9622572    0.23472187088125
            0.44453796    0.81377028525955
 s    1 1.00
            0.12194962                   1
 p    1 1.00
                   0.8                   1

[5d]
[7f]
[9g]

[MO]
 Sym= A
 Ene=               0
 Spin= Alpha
 Occup=    1.00000
   1    -3.6189776648033e-05
   2    7.9655012657726e-05
   3    -0.00062429542581779
   4    -2.1508009963052e-05
   5    0.0013457221613138
   6    -0.0078553798584306
   7    -0.0072209106191137
   8    0.0033008133878687
   9     0.036928222538526
  10     0.033917638713159
  11    -0.015447853941814
  12     0.066271645623253
  13     0.061783871362739
  14    -0.026221591013788
  15    -0.018096478413001
  16     0.035525775031013
  17     0.010771267436399
  18    -0.056614922904318
  19     0.014754641669769
  20    -0.010138572625836
  21     0.019722218997264
  22    0.0061816216555019
  23    -0.030733046074585
  24    0.0082240564869817
  25    -0.00072065779568053
  26    0.0011894327871989
  27    -0.000714307474312
  28    -0.0027939446998909
  29     0.002031052477629
  30    0.0013918884146436
  31    -0.0033717560735804
  32    3.9034187282089e-05
  33    -8.3211214193969e-05
  34    0.00068111720999482
  35    -0.00027022664733403
  36    -0.00071188296239536
  37    -0.0078433901442845
  38    -0.0072312706060731
  39     0.003301244711832
  40     0.036887031182414
  41     0.033949521148517
  42    -0.015458298570765
  43     0.066345027224857
  44     0.061839452231224
  45     -0.02593962596746
  46     0.018233559719541
  47     -0.03556969234312
  48    -0.010738435168319
  49     0.056602914923818
  50    -0.014584542645985
  51     0.010121498629746
  52    -0.019681039069032
  53    -0.0062353506802684
  54     0.030731307914731
  55    -0.0084111268016125
  56    -0.00072503088979222
  57    0.0011883946101789
  58    -0.000722390446388
  59    -0.0027953778449145
  60    0.0020313271825762
  61    0.0013979329590614
  62    -0.0033645956149178
  63    5.5764758272376e-05
  64    -0.00014939365707255
  65    -8.1133275136714e-05
  66      0.33366631153962
  67      0.30678917986183
  68     -0.13179086321909
  69      0.28625579771442
  70      0.26342416990296
  71     -0.11310830366078
  72    -9.3103096992397e-06
  73    5.7107586918537e-06
  74    -9.8686926678866e-06
  75    1.9540729942324e-06
  76    -1.1735597767221e-05
  77      0.01250283037397
  78     0.042571827988127
  79    -0.0029020254105477
  80    0.0010771472023896
  81     0.049886020599536
  82     0.046059675286439
  83    -0.0064466295011739
  84    -0.033452838791378
  85    -0.013616097557668
  86    -0.00020085533026811
  87    -0.0015295966801374
  88    0.0004470250353259
  89     0.003532425228835
  90    -0.0019030523458322
  91     0.055175051569337
  92     0.011789334141947
  93    -0.0052799035123031
  94    0.00025887656586815
  95    0.0020500588706575
  96    -0.012680442766665
  97    -0.008716612870577
  98    0.0014357006169703
  99    -0.0024359670111509
 100    -0.00013314160273722
 101    -0.025626524467942
 102     0.012302203346425
 103    -0.0027870473929721
 104    0.00017573889152932
 105    -0.0022385745661071
 106     0.010673253314037
 107     0.034064388777325
 108    0.0089902555072025
 109    -0.027742156320232
 110     0.045767083238394
 111    -0.0011211569361299
 112    0.0098796641372616
 113    -0.021980224409653
 114    0.0051028283841949
 115    0.0027235076239173
 116    -0.00016882200791058
 117    0.0011461845027811
 118    2.7501006600978e-05
 119     0.001159024064079
 120    -0.032177834679142
 121    -0.0076937267274698
 122    -0.0018763338252578
 123     0.001114946851503
 124    0.0020768324280416
 125     0.031800594422246
 126     0.010724490907619
 127    0.0021287908964663
 128    -8.665406520284e-05
 129    0.0031611233060452
 130     0.009609401013185
 131    -0.0025663806677063
 132    -0.00032772307003477
 133     -0.00273438065145
 134    -0.00043320046099082
 135    -0.010920723734081
 136    -0.037156386720399
 137    0.0035909721550467
 138      0.01808513455758
 139    -0.022549907143657
 140    -0.051370488605019
 141    -0.021153688413989
 142    0.0031887880761872
 143     0.025351621775787
 144    0.0011581306102706
 145    -0.0014238926391615
 146    0.00017998649443564
 147    0.0029762720130846
 148    0.0012565591290325
 149    -0.048026912486285
 150    -0.009964352146614
 151    0.00024988525254524
 152    -0.0049313734565881
 153    0.00061847783325204
 154     0.020584512249636
 155    -0.013965340829575
 156    0.0011494859361061
 157    -0.0013112892909873
 158    0.0028687594642224
 159     0.012230935030997
 160    0.0084544241025644
 161    -0.0021143171869182
 162    0.0014401243517128
 163    0.00022978011353271
 164    -0.012382216956002
 165    -0.039798142071473
 166    -0.0086250703221025
 167     0.052745024369235
 168    -0.031679054638532
 169    -0.013172471079358
 170    -0.026839751934125
 171    0.0091908212972771
 172    0.0029541874490129
 173    -0.0021122030283638
 174    -0.00060658269931449
 175    -0.0026957997500229
 176    0.00087035807626214
 177    -0.001614258753151
 178    -0.002019339854631
 179    0.0040052581855712
 180    -0.0021815530933364
 181    0.0010773597402955
 182    0.0013911712693247
 183     -0.04417215164022
 184    -0.014313751147937
 185    -0.0020656487187074
 186    -0.00074675507067376
 187    -0.0043757165120801
 188     0.035024464571277
 189    0.0078955882452533
 190    4.3185382193121e-05
 191    -0.0029787160965737
 192    -0.00010274831675888
 193    4.3895580250207e-05
 194    7.7706416119553e-05
 195    -0.00010103087809505
 196    -0.073583463147893
 197    -0.068674143788997
 198     0.029950203538331
 199     0.040428222240878
 200     0.037413665374976
 201    -0.016416821051293
 202    0.0025761303804173
 203    -0.0022399378584592
 204    -0.0022234111895859
 205    0.0013506272111959
 206    -0.0019065140845233
 207     0.062640919543142
 208     0.010879266378302
 209    -0.0009902989665556
 210    0.00011270127929637
 211    0.0060217066516788
 212    -0.071610215333708
 213    -0.012644687059801
 214    -0.0026376335336217
 215    -0.0049781063052551
 216    -0.0036244777512591
 217    0.0093532189841301
 218    0.0013767328958275
 219    0.0016040226271137
 220    0.0029167030985715
 221    -0.0015635293541101
 222    -0.012524133136838
 223    -0.042781993832276
 224    0.0039213731145535
 225    0.00098125532424288
 226     0.049839094828308
 227     0.046712966626741
 228    -0.0058370282845008
 229    -0.034519077801733
 230    -0.014748043186375
 231    -7.5856459322817e-06
 232    0.0015402830505212
 233    -0.00019606521268146
 234    -0.0036123078858919
 235    0.0016959767658414
 236     0.027120690167891
 237    -0.013191436326913
 238    -0.0031436512451905
 239    0.00043676037317466
 240    -0.0021777727600414
 241    0.0098168211085205
 242    0.0078326786937834
 243    0.0014523263193235
 244    -0.0023986246789925
 245    -0.00054133283615262
 246    -0.054523176332708
 247    -0.011104133536897
 248    -0.0051484918736526
 249    -0.00011733649204541
 250    0.0022757304969177
 251     -0.01061988273369
 252    -0.033830043257614
 253    -0.0095159126595754
 254    -0.026884055712233
 255     0.045897242495445
 256    -0.00083321209958181
 257    0.0083107032431993
 258    -0.021511180757873
 259    0.0052625519639243
 260    -0.0028171325835329
 261    0.00031365834153297
 262    -0.0012918694415796
 263    0.00015483737683249
 264    -0.00091769632890823
 265    -0.034096049227989
 266     -0.01173402407006
 267    0.0018698564508521
 268    5.4335444026607e-05
 269    0.0034935187291888
 270     0.031611488866962
 271    0.0091100369220451
 272    -0.0020775740620928
 273    0.00094170812613818
 274    0.0015500072377103
 275    -0.0063433189983191
 276    0.0026675822236405
 277    7.8591771272148e-06
 278    -0.0026117703690343
 279    -0.00041863311010599
 280     0.012409054746265
 281     0.039902720168284
 282    0.0084181821777712
 283     0.052828087732175
 284     -0.03202080752147
 285    -0.012705998602143
 286    -0.027210030719676
 287     0.010198504578773
 288    0.0025887105516269
 289    0.0022125391332189
 290    0.00063448147886981
 291    0.0024340208041767
 292    -0.00084106305250304
 293    0.0017466137703624
 294     0.042540593811651
 295     0.013535658251898
 296    -0.0020804295391381
 297    -0.00038859186501975
 298    -0.0042926367930012
 299    0.0045712637119661
 300    -0.0037818053258435
 301    -0.0022462582242209
 302    0.00090607638969305
 303    0.0016212507535048
 304    -0.035836539547895
 305    -0.0070289828313163
 306    1.8023700475152e-05
 307    -0.0031372810417719
 308    -0.00053184475393426
 309     0.010924382706282
 310     0.036976467953463
 311    -0.0022697549664708
 312     0.018259167353531
 313    -0.021994226941938
 314    -0.050871574653894
 315    -0.020534015726283
 316    0.0020903933760727
 317     0.024233230329757
 318    -0.0011582615740945
 319    0.0012608964607829
 320    -0.00015574429995516
 321    -0.0029406415470768
 322    -0.0015254626568754
 323     0.048074352142907
 324     0.010499947010473
 325    0.00061256958831505
 326    -0.0048873389112146
 327    0.00069237830001444
 328    -0.014358602465253
 329    -0.0095220328915978
 330    -0.0022518722967864
 331    0.0012471955371098
 332    -1.9415602718106e-05
 333    -0.019232908466998
 334     0.012934674076968
 335    0.00091384663771638
 336    -0.0010349410365251
 337    0.0028497631028447
 338    -3.2498134357219e-06
 339    5.7544291017509e-05
 340    0.00010239193810021
 341    -0.073732790463988
 342    -0.068635652909663
 343     0.029714628792481
 344     0.040307281639497
 345     0.037543995906152