[Molden Format]
made by pyscf v[2.1.1]
[Atoms] (AU)
Fe   1   26     3.17068844873907     0.00098706064664     0.12237737881307
O   2   8     0.00000000000000     0.00000000000000    -0.89004350580623
Fe   3   26    -3.17068844873907    -0.00098706064664     0.12237737881307
Cl   4   17     3.53383895113107    -2.07485195383062     3.76228752659000
Cl   5   17     5.54152580550813    -1.85590924879884    -2.78672786652360
Cl   6   17     4.48169216485503     3.92976278472880    -0.95330240907949
Cl   7   17    -3.53383895113107     2.07485195383062     3.76228752659000
Cl   8   17    -5.54152580550813     1.85590924879884    -2.78672786652360
Cl   9   17    -4.48169216485503    -3.92976278472880    -0.95330240907949
[GTO]
1 0
 s    6 1.00
          60923.640643  0.0017552243692958
          9147.8893982   0.013449023284001
          2081.3505927   0.066678874640978
          587.55977067    0.23176348548844
           191.0904399    0.46945550248188
          65.732730112     0.3596824938678
 s    3 1.00
          127.25891928   -0.10723431835929
           14.83091301    0.62971616328466
          6.0653307408    0.44472317896179
 s    3 1.00
           10.44994371   -0.21694289195548
          1.7245228003    0.69457867408393
         0.71772177325    0.43298308896347
 s    1 1.00
        0.091449828308                   1
 s    1 1.00
        0.033706691021                   1
 p    5 1.00
          773.43750995  0.0091440529992506
          182.15149714   0.067887577136571
          57.547272758    0.26167978878504
          20.614988935    0.51088040113251
           7.634855789    0.33235475570224
 p    3 1.00
           3.871932799    0.33193859098144
          1.4924724132     0.5553666555499
         0.56061284958    0.23106034201617
 p    1 1.00
              0.134915                   1
 d    4 1.00
          38.968133419   0.033335938558743
          10.800067078    0.17766212505983
          3.6136457999      0.441281781625
          1.2129967888    0.57089200490673
 d    1 1.00
          0.3652439317                   1
 f    1 1.00
                 1.598                   1

2 0
 s    5 1.00
          2266.1767785  -0.0053893503921743
          340.87010191   -0.04023472138896
          77.363135167   -0.18008184205526
           21.47964494   -0.46828857657651
          6.6589433124   -0.44692617160187
 s    1 1.00
         0.80975975668                   1
 s    1 1.00
         0.25530772234                   1
 p    3 1.00
          17.721504317   0.062630248763161
           3.863550544    0.33331138482352
          1.0480920883    0.74148638308122
 p    1 1.00
         0.27641544411                   1
 d    1 1.00
                   1.2                   1

3 0
 s    6 1.00
          60923.640643  0.0017552243692958
          9147.8893982   0.013449023284001
          2081.3505927   0.066678874640978
          587.55977067    0.23176348548844
           191.0904399    0.46945550248188
          65.732730112     0.3596824938678
 s    3 1.00
          127.25891928   -0.10723431835929
           14.83091301    0.62971616328466
          6.0653307408    0.44472317896179
 s    3 1.00
           10.44994371   -0.21694289195548
          1.7245228003    0.69457867408393
         0.71772177325    0.43298308896347
 s    1 1.00
        0.091449828308                   1
 s    1 1.00
        0.033706691021                   1
 p    5 1.00
          773.43750995  0.0091440529992506
          182.15149714   0.067887577136571
          57.547272758    0.26167978878504
          20.614988935    0.51088040113251
           7.634855789    0.33235475570224
 p    3 1.00
           3.871932799    0.33193859098144
          1.4924724132     0.5553666555499
         0.56061284958    0.23106034201617
 p    1 1.00
              0.134915                   1
 d    4 1.00
          38.968133419   0.033335938558743
          10.800067078    0.17766212505983
          3.6136457999      0.441281781625
          1.2129967888    0.57089200490673
 d    1 1.00
          0.3652439317                   1
 f    1 1.00
                 1.598                   1

4 0
 s    5 1.00
          10449.827566  0.0054265953789407
          1571.7365221   0.040626378128836
          357.12065523    0.18359747852877
          100.25185935    0.47438948768198
          30.812727554    0.43735181104122
 s    3 1.00
          51.923789434  -0.092754154848099
          5.7045760975    0.56380825544207
          2.3508376809    0.50367044629712
 s    1 1.00
         0.44605124672                   1
 s    1 1.00
          0.1684885619                   1
 p    5 1.00
          307.66790569  -0.0088797025588865
          72.102015515  -0.064284071721237
          22.532680262   -0.24288739736006
          7.8991765444   -0.48340836369878
          2.8767268321   -0.38952563875509
 p    1 1.00
         0.77459363955                   1
 p    1 1.00
         0.21037699698                   1
 d    1 1.00
                  0.65                   1

5 0
 s    5 1.00
          10449.827566  0.0054265953789407
          1571.7365221   0.040626378128836
          357.12065523    0.18359747852877
          100.25185935    0.47438948768198
          30.812727554    0.43735181104122
 s    3 1.00
          51.923789434  -0.092754154848099
          5.7045760975    0.56380825544207
          2.3508376809    0.50367044629712
 s    1 1.00
         0.44605124672                   1
 s    1 1.00
          0.1684885619                   1
 p    5 1.00
          307.66790569  -0.0088797025588865
          72.102015515  -0.064284071721237
          22.532680262   -0.24288739736006
          7.8991765444   -0.48340836369878
          2.8767268321   -0.38952563875509
 p    1 1.00
         0.77459363955                   1
 p    1 1.00
         0.21037699698                   1
 d    1 1.00
                  0.65                   1

6 0
 s    5 1.00
          10449.827566  0.0054265953789407
          1571.7365221   0.040626378128836
          357.12065523    0.18359747852877
          100.25185935    0.47438948768198
          30.812727554    0.43735181104122
 s    3 1.00
          51.923789434  -0.092754154848099
          5.7045760975    0.56380825544207
          2.3508376809    0.50367044629712
 s    1 1.00
         0.44605124672                   1
 s    1 1.00
          0.1684885619                   1
 p    5 1.00
          307.66790569  -0.0088797025588865
          72.102015515  -0.064284071721237
          22.532680262   -0.24288739736006
          7.8991765444   -0.48340836369878
          2.8767268321   -0.38952563875509
 p    1 1.00
         0.77459363955                   1
 p    1 1.00
         0.21037699698                   1
 d    1 1.00
                  0.65                   1

7 0
 s    5 1.00
          10449.827566  0.0054265953789407
          1571.7365221   0.040626378128836
          357.12065523    0.18359747852877
          100.25185935    0.47438948768198
          30.812727554    0.43735181104122
 s    3 1.00
          51.923789434  -0.092754154848099
          5.7045760975    0.56380825544207
          2.3508376809    0.50367044629712
 s    1 1.00
         0.44605124672                   1
 s    1 1.00
          0.1684885619                   1
 p    5 1.00
          307.66790569  -0.0088797025588865
          72.102015515  -0.064284071721237
          22.532680262   -0.24288739736006
          7.8991765444   -0.48340836369878
          2.8767268321   -0.38952563875509
 p    1 1.00
         0.77459363955                   1
 p    1 1.00
         0.21037699698                   1
 d    1 1.00
                  0.65                   1

8 0
 s    5 1.00
          10449.827566  0.0054265953789407
          1571.7365221   0.040626378128836
          357.12065523    0.18359747852877
          100.25185935    0.47438948768198
          30.812727554    0.43735181104122
 s    3 1.00
          51.923789434  -0.092754154848099
          5.7045760975    0.56380825544207
          2.3508376809    0.50367044629712
 s    1 1.00
         0.44605124672                   1
 s    1 1.00
          0.1684885619                   1
 p    5 1.00
          307.66790569  -0.0088797025588865
          72.102015515  -0.064284071721237
          22.532680262   -0.24288739736006
          7.8991765444   -0.48340836369878
          2.8767268321   -0.38952563875509
 p    1 1.00
         0.77459363955                   1
 p    1 1.00
         0.21037699698                   1
 d    1 1.00
                  0.65                   1

9 0
 s    5 1.00
          10449.827566  0.0054265953789407
          1571.7365221   0.040626378128836
          357.12065523    0.18359747852877
          100.25185935    0.47438948768198
          30.812727554    0.43735181104122
 s    3 1.00
          51.923789434  -0.092754154848099
          5.7045760975    0.56380825544207
          2.3508376809    0.50367044629712
 s    1 1.00
         0.44605124672                   1
 s    1 1.00
          0.1684885619                   1
 p    5 1.00
          307.66790569  -0.0088797025588865
          72.102015515  -0.064284071721237
          22.532680262   -0.24288739736006
          7.8991765444   -0.48340836369878
          2.8767268321   -0.38952563875509
 p    1 1.00
         0.77459363955                   1
 p    1 1.00
         0.21037699698                   1
 d    1 1.00
                  0.65                   1

[5d]
[7f]
[9g]

[MO]
 Sym= A
 Ene=               0
 Spin= Alpha
 Occup=    1.00000
   1    0.0068714494532799
   2    -0.0091759021147251
   3      0.13728007276717
   4      0.24149931349435
   5     -0.06973479324592
   6    -0.084153410447297
   7    -0.001709683395571
   8    -0.029807913546354
   9      0.27720750649541
  10    0.0053005078895987
  11     0.097412678518764
  12     0.074984402831341
  13    -0.0014915287769049
  14     0.033164501764103
  15    0.0034650413009054
  16    -0.015885465101891
  17    -0.013874748889904
  18    -0.0039380236146498
  19    -0.0022942855646838
  20    0.0076771854271617
  21    -0.019528475333769
  22    -0.010710002651891
  23    -0.014562343846768
  24    -0.001503619958569
  25    0.0015526105295863
  26    0.0012165795376243
  27    -0.0025463855960036
  28    -0.00069507452017536
  29    0.00049733117623223
  30    -0.0016675554124357
  31    -0.00088608745799626
  32     -0.38022599882812
  33    -0.052037951968229
  34    -0.043267738581371
  35     0.065932247653565
  36    -0.00093807819389854
  37     0.043096320609409
  38     0.075095386909665
  39    -0.0021039473621522
  40      0.03966847107655
  41    0.0011005865068766
  42    0.0030119539144542
  43    -7.9871455547186e-05
  44    -0.00012127744094031
  45    -1.5202284857465e-05
  46    -0.0023469351534782
  47    0.0081930265665389
  48    -0.026099912943647
  49    -0.030922054041876
  50     0.017467185009891
  51    0.0096903782594759
  52    -6.7040689649494e-05
  53    0.0030696912249006
  54    -0.028733604024315
  55    0.00020915163072382
  56    -0.010177066051635
  57    0.0050544271487419
  58    0.00010719677355552
  59    0.0012210153772916
  60    6.0342697419494e-05
  61     0.017468609718613
  62    -0.0029600889667692
  63    -0.0083652889766362
  64    -0.00075882918750553
  65    -0.0010025875158189
  66    0.0072564944935584
  67    -0.0022966071467824
  68    -0.0011594218872994
  69    -0.00042567350449394
  70    -0.00068423339507063
  71    0.00010049796854606
  72    -0.00023065357348078
  73    0.00085342349382172
  74    1.555947140472e-05
  75    -0.00070644321635007
  76    -8.8351846244856e-05
  77     0.014079573148578
  78    -0.098581729466162
  79      0.21084738766556
  80       0.1163410118447
  81     0.013276960790859
  82     0.034010349451954
  83     -0.04772419051867
  84     0.020248516947744
  85     0.072924540720145
  86     -0.10803367432309
  87      0.02844319155742
  88     0.096262615025265
  89      -0.1380039652636
  90     0.010123027394506
  91    0.00010038223058095
  92    -0.013060684944975
  93    -0.0040757437492876
  94    -9.9616247561202e-05
  95     0.013572585329806
  96    -0.095481791676327
  97      0.20746323973932
  98      0.11903804591617
  99    -0.014563842885164
 100     0.022596004596207
 101     0.047377027327209
 102    -0.041836991168575
 103      0.05262874034481
 104      0.10191222771684
 105     -0.05513794829889
 106     0.065290485565467
 107      0.13556438090466
 108    0.0060757474971486
 109    -0.010802785618749
 110    0.0096874084223954
 111    0.00032347982815129
 112    -0.0062362729511137
 113     0.012450553414321
 114    -0.087743616187194
 115      0.19126576063502
 116      0.11227208820026
 117    0.0038909843675083
 118    -0.046777889190503
 119     0.026133841240797
 120    -0.0018531355819575
 121     -0.10673298736983
 122     0.051036133245378
 123     -0.00110914678451
 124     -0.13886240844458
 125     0.074649010123691
 126    -0.0049087427136461
 127    -0.0018238879848916
 128    -0.0077509974656667
 129    -0.010682607453726
 130    0.0048661744759046
 131    -0.0007422313644589
 132    0.0050388467650417
 133     -0.01116932342938
 134    -0.0019658565108755
 135    -0.00073923631419917
 136    0.0041411411891865
 137    0.0078247722991024
 138    -0.00095800295911848
 139    0.0077221231652524
 140     0.014554624800409
 141    0.0010021726076783
 142     0.010281283291021
 143     0.019292940312693
 144    -0.0013510986551038
 145    -2.7895409528693e-05
 146    -0.0014291510653457
 147    0.00060886232334351
 148    -9.3678061111421e-05
 149    -0.00075029885706323
 150    0.0051814339847371
 151    -0.010040008459688
 152    -0.0084059597763312
 153    -0.003116906259198
 154    0.0011879530300088
 155    -0.0032220411330809
 156    -0.0058996138086481
 157    0.0027315783675268
 158    -0.0065821580404073
 159    -0.0088609074934497
 160    0.0034246952345335
 161    -0.0091379447266465
 162    -3.9653144278431e-05
 163    -0.0012571938687854
 164    0.0007291572939243
 165    -0.00067137225347473
 166    0.00096589107749844
 167    -0.00099194870980195
 168    0.0066877465924497
 169    -0.012646209700323
 170    -0.0068176497500043
 171     -0.00456257838821
 172    -0.0059235466070577
 173    -0.0022523455963303
 174    -0.0080565013972307
 175     -0.01140231078901
 176    -0.0041949799040999
 177    -0.010666141014309
 178    -0.015475405102682
 179    -0.0059981536219247
 180    0.00081512133512917
 181    -0.0001637115694393
 182    -0.00066278634879252
 183    0.0010170294005265
 184    -0.0013764358233805
 Sym= A
 Ene=               1
 Spin= Alpha
 Occup=    1.00000
   1    0.0012624744301202
   2    -0.0037551393587934
   3     0.016795124211706
   4    -0.031469241005736
   5     0.013929159754852
   6    0.00067801989819303
   7    0.0014776969243777
   8    -0.0048082400533784
   9    -0.0021473194318872
  10    -0.0046677566308234
  11     0.014936499479725
  12    0.0023346540059238
  13    0.0057445578952562
  14    -0.021809710771223
  15      0.20129517106677
  16     -0.47894349029444
  17     -0.48273038468817
  18      0.43357080796764
  19      0.28034089306669
  20     0.054083637159342
  21     -0.12836789477999
  22     -0.13067659564533
  23      0.11765350448459
  24      0.07532786963639
  25     0.001065844247507
  26    -0.0010670254540587
  27    -0.00098054201325052
  28    -0.00025921590584606
  29    -0.00029218080058161
  30    0.00088712756817925
  31    0.00057294546750106
  32    0.0018812243920038
  33    0.0050967824898948
  34    0.0025537362739775
  35    0.0086483864573905
  36     0.014399737334516
  37    -0.049584912401227
  38    0.0094574936068683
  39     0.014021458953795
  40    -0.048219577465604
  41    -0.00020486316905496
  42    0.0012000329439873
  43    -0.00019746568071852
  44    -0.00011826104500633
  45    -0.00019572921819603
  46    0.00052574718285185
  47    -0.0015699611397397
  48    0.0070002761516759
  49    -0.007446913363751
  50    0.0013408820059542
  51    -0.0024284752523025
  52    0.0005253847418791
  53    -0.00083763859105761
  54    0.0077508893046552
  55    -0.0016720505223089
  56    0.0026746112166343
  57    -0.0067288818571163
  58    0.0030768697790584
  59    -0.0085391237510767
  60    0.0012752476237249
  61    -0.00071361451318005
  62    -7.1256961773832e-06
  63    -0.0019590585414222
  64    0.00060759095846167
  65    0.0014003379904642
  66    -0.0023066272816299
  67    -0.00015476322268199
  68    -0.00081310669889004
  69    0.00085977518250558
  70    4.9495296782032e-05
  71    0.00039237230054923
  72    1.7782681149597e-05
  73    -9.1369602086443e-05
  74    -6.228738141863e-05
  75    -0.00028375448815259
  76    0.00012035643886898
  77    -0.0013678035584268
  78    0.0089692200279325
  79    -0.011347215919904
  80    -0.0065346706052621
  81     0.018071071002525
  82    -0.0080035130446658
  83     0.010004455761349
  84      0.03064215934665
  85    -0.013808768520082
  86     0.017432577010389
  87     0.050506291704109
  88    -0.022134070917502
  89     0.027766976736327
  90    -0.00048518765508553
  91    0.0019647057151721
  92    -0.00045177383655045
  93    0.00086838258957837
  94    -0.0012409574592879
  95    8.1874417974037e-05
  96    -0.00055759288552273
  97    0.0022451853854165
  98    -0.0045303465858881
  99     -0.01179110707182
 100    -0.025701019821946
 101    0.0080044099904645
 102    -0.019903133944108
 103    -0.043317402259202
 104      0.01335024568319
 105    -0.031869058145103
 106    -0.073903377752359
 107     0.022203306601212
 108    -0.00070917396954045
 109    0.0013556838870252
 110     0.001657109953105
 111    -0.0020452239765582
 112    -0.0012718934556323
 113    0.00020085753321258
 114    -0.0013304927193284
 115    0.0030810232176972
 116    -0.0026417318874009
 117    -0.013244289074953
 118    0.0077782359107636
 119      0.02192287277898
 120    -0.022201994792749
 121      0.01310265767713
 122     0.036790145236995
 123    -0.037137998769849
 124     0.023095633897187
 125     0.062105478462261
 126    -0.00098988202211796
 127    0.0012773991190264
 128    0.0015530998885767
 129    -0.0016691708624323
 130    -0.0007949655167061
 131    0.00022416267764501
 132      -0.0015135706917
 133     0.002814654967171
 134    0.0014910300546551
 135    0.0015525845512031
 136    -0.0008385325839922
 137    -0.0007840871107852
 138    0.0028636664714472
 139    -0.0014347027400511
 140    -0.001373140535017
 141    0.0037564121711716
 142    -0.0032801898889918
 143    -0.0030828535321988
 144    0.00010629936762633
 145    0.00031181266244692
 146    -5.1473369940333e-05
 147    -0.00017675522226453
 148    0.00024837522436142
 149    -7.7414905229439e-05
 150    0.00050917068203383
 151    -0.00037031699472211
 152    -0.0032623783308404
 153    -0.0010522168374074
 154    -7.6967851531161e-05
 155    0.00069412193201316
 156    -0.0018311212911135
 157    -0.00018378405390806
 158    0.0012500879606881
 159    -0.0035837885988305
 160    0.00080130671440186
 161    0.00049861149640121
 162    -4.5390890782387e-05
 163    -0.00014082319635266
 164    5.5476550257548e-05
 165    9.5034400006641e-05
 166    3.0585928588247e-05
 167    0.00010070385587301
 168    -0.00068137262240741
 169    0.0014329182470796
 170    -0.00028895002827025
 171    0.00075406139496979
 172    0.00040693526168209
 173    0.00078926538832506
 174    0.0013704755683749
 175    0.00074411085746118
 176     0.001301529754041
 177    0.0019864325341898
 178    0.00093053526506828
 179    0.0026917331389214
 180    0.00010614559632297
 181    -0.00013540675860167
 182    -1.2870041136881e-05
 183    -0.00010585473386384
 184    -0.00017965845961239
 Sym= A
 Ene=               2
 Spin= Alpha
 Occup=    1.00000
   1    0.00083342290456652
   2    -0.0024797521680678
   3     0.011079234985412
   4     -0.02107078597841
   5    0.0075544874454391
   6    4.4083534920407e-05
   7    -0.0065214085801402
   8    -0.0033023055725053
   9    -0.00011512250578294
  10     0.020054897095383
  11     0.010088176955901
  12    -0.00092727162543018
  13     -0.02826143274525
  14    -0.015721005170305
  15     -0.52478932055661
  16     -0.15477636684341
  17     -0.46394355936512
  18     -0.13091969094675
  19     -0.48633748051768
  20     -0.14098167839219
  21    -0.040740914575344
  22     -0.12459804480271
  23    -0.034781653379638
  24     -0.12900282189578
  25    -0.00059363468181018
  26    -0.0013496030883445
  27    -0.00055241028456503
  28    -0.00067544106556402
  29    -0.001707326810869
  30    -7.891943558288e-05
  31    -0.0015208093559275
  32    0.0022475313026204
  33    0.0058798220546772
  34    0.0028871779012502
  35     0.009213490647441
  36    -0.076074828114264
  37    -0.042438557353675
  38     0.010232396908202
  39     -0.07325189229363
  40    -0.041430301992404
  41    -0.00063102110873944
  42    0.0012348060622072
  43    -0.0011389830084401
  44    -0.00049702379072442
  45    0.0016929106717184
  46    0.00051488386678997
  47    -0.0015250851956301
  48    0.0069092981550335
  49    -0.0083677278956857
  50    0.0020154024739505
  51    -0.0021767133921728
  52    -0.0022255628418241
  53    -0.00050574154036379
  54    0.0069497095631012
  55    0.0070862501130525
  56     0.001620824337825
  57    -0.0055215115667666
  58    -0.014249605127664
  59    -0.0069230989311883
  60    0.0013746745541519
  61    -0.00013052209251938
  62    0.00042130816661644
  63    -0.0014505974652543
  64    -0.002172037845582
  65    0.0012381715548118
  66    -0.0019759921292503
  67    0.0012196637726851
  68    -0.00051704361605899
  69    -0.0049898545264957
  70    2.0144247768221e-05
  71    0.00033436569514348
  72    0.00014483022917013
  73    -0.00011147968088259
  74    0.00034979232149778
  75    -0.00027010086598336
  76    -0.00066390636762671
  77    -7.9002532377017e-05
  78    0.0005125148228188
  79    -0.0001057827757242
  80    -0.0010166242598457
  81    -0.0031730810759477
  82     0.022896936393131
  83     0.013944421308003
  84    -0.0053317672522798
  85     0.038615605585547
  86     0.023631832696945
  87    -0.0090283694294976
  88     0.065522892525715
  89     0.039931908714191
  90    0.0025944406609893
  91    -0.00043611591162016
  92    0.0013270707432299
  93    0.0014283596301211
  94    0.00011700361195745
  95    0.00042605623353022
  96    -0.0028453424548615
  97    0.0053327050586494
  98    -0.0036238570593363
  99    -0.016228692977726
 100    0.0098706677742692
 101    -0.013859322542895
 102    -0.027545719365019
 103      0.01657454803753
 104    -0.023278593684442
 105    -0.043782677854793
 106     0.028271221448048
 107    -0.040372769031644
 108     0.002395631878488
 109    2.5150475479555e-05
 110    -9.5047285364494e-06
 111    -0.00086353106680397
 112    0.0012544579698336
 113    -0.0010875892834939
 114    0.0071239806215306
 115    -0.0093740329454948
 116     -0.00327315152883
 117     0.015793550308323
 118    0.0090163879674728
 119    0.0078060697880705
 120     0.026650421605794
 121     0.015469876640059
 122     0.013070845012377
 123     0.044003681935855
 124     0.024868261225267
 125        0.022775825825
 126    -0.00094656039863285
 127    -0.00021193455898329
 128    0.0011504978487343
 129    0.00078569434401769
 130    0.0011652291483161
 131    0.00029241024822827
 132    -0.0019351035461759
 133    0.0025939930889066
 134    0.0053213216343703
 135    0.0024305960511342
 136    3.7291192546787e-05
 137    -0.0019501618089951
 138    0.0042739426971406
 139    0.00011350757764643
 140    -0.0033027775045579
 141    0.0065491834916977
 142    -0.0011618850822335
 143    -0.0080870273776067
 144    3.6912561723999e-05
 145    0.00054286618864369
 146    6.1547700547835e-05
 147    -0.00029642306679828
 148    9.0980720904509e-05
 149    9.8895509075078e-05
 150    -0.00066368637964105
 151    0.0012810804692743
 152    9.7312568305088e-05
 153    0.00089671669533168
 154    0.00045666199862854
 155    0.00078704217930872
 156    0.0016063835670796
 157    0.00064709637628319
 158     0.001264329553973
 159    0.0024753977314475
 160    0.0023337956455054
 161    0.0028358573179776
 162    0.0001769492268185
 163    -0.00012587917807762
 164    2.1442540771295e-05
 165    -0.00012321720365645
 166    -2.4108999593434e-05
 167    -0.00027012554007576
 168    0.0017976788199937
 169    -0.0026167625596178
 170    -0.0045238249331787
 171    -0.0030061173154244
 172    -0.00081786899302273
 173    0.00082798201335852
 174    -0.0054029751402687
 175    -0.0013606466552865
 176    0.0014994880832207
 177    -0.0077189260507294
 178    -0.0046329498627597
 179    0.0013589826220006
 180    -0.00012663964075385
 181    -0.00021916989331075
 182    -0.0001912191795295
 183    0.00053504387156507
 184    0.00021072647962878
 Sym= A
 Ene=               3
 Spin= Alpha
 Occup=    1.00000
   1    -0.00060853358390932
   2    0.0018142423864915
   3    -0.0080868826507099
   4     0.010043919555883
   5    0.0019742416688946
   6    -0.0023363887630131
   7    -0.0044964614847133
   8    0.0042158089320853
   9    0.0072438264265358
  10     0.014206161262574
  11    -0.013410042414194
  12    -0.0063492231499679
  13    -0.0073195300721881
  14    0.0058593368129669
  15     -0.55573373156541
  16     -0.37269620980414
  17      0.30124322203496
  18     -0.11361236064075
  19      0.46174646384773
  20     -0.14551693864788
  21    -0.096016565855472
  22      0.07868380445342
  23    -0.031178644811385
  24      0.11884562694976
  25    -0.00018544042874908
  26    -0.0018424290097897
  27    -5.7470488290719e-05
  28    -0.0015978291813465
  29    0.0013404472543303
  30    0.00022278918267641
  31    0.0018834257841881
  32    0.0049522555905724
  33     0.012110735836755
  34    0.0094532742020156
  35     0.024701384690703
  36     0.080574295798636
  37    -0.072928725850701
  38     0.027708648065123
  39     0.078729708553065
  40    -0.070917844386657
  41    -0.00072504458911391
  42    0.0020999571291868
  43    0.0011412673295666
  44    -0.001112800053235
  45     -0.00183687629451
  46    0.00099724033825042
  47    -0.0029515374082001
  48     0.013400585597061
  49    -0.014466105710845
  50    0.0046655903894558
  51    -0.0043688509607984
  52    0.0025493865368793
  53    -0.0010423946006422
  54      0.01401336740504
  55    -0.0081151053650657
  56    0.0033440834419938
  57    -0.013263301057886
  58     0.015551065886138
  59     -0.01374009981367
  60    0.0018787849519398
  61    -7.8200152673187e-05
  62    -0.00050362599138732
  63    -0.0034024829482208
  64    0.0022532445933293
  65    0.0021828916380555
  66    -0.0033959813417412
  67    -0.0016094055784974
  68    -0.0020288138457026
  69    0.0052258597161334
  70    1.6813314931516e-05
  71    0.00060519430597035
  72    -6.3329954541636e-05
  73    -1.2598630868693e-05
  74    -0.0003724451864294
  75    -0.00049413655516996
  76    0.00070224170066925
  77    0.0036842559790976
  78    -0.024146621756342
  79     0.030150272624178
  80     0.030433161737695
  81     0.010490711919203
  82     0.027802840103726
  83    -0.029951513713131
  84     0.017497772633744
  85     0.047315335886984
  86    -0.051387892732112
  87     0.029785447533971
  88     0.083035102576439
  89    -0.091863781408043
  90    0.0011947047335995
  91    0.0017922832850757
  92    -4.877447542043e-05
  93    -1.0418917768647e-05
  94    -0.00041264209441077
  95    -0.00049070854167455
  96    0.0031845107765845
  97    -0.0034601315522006
  98    -0.0058604233519264
  99    0.00068600737661702
 100    0.0051535525232066
 101    -0.011277395272622
 102    0.0012071274792859
 103    0.0089057773395974
 104    -0.019222276808966
 105    0.0027498137925143
 106     0.013263497745449
 107    -0.032102202746113
 108    0.00081715248762181
 109    -0.00044144450007897
 110    -0.00034345162139558
 111    0.00038528308250414
 112    0.0015494618898936
 113    -0.0028928494300765
 114     0.018835372162988
 115    -0.022654912679823
 116    -0.025959841714057
 117    -0.00049587613977941
 118     0.029140864562448
 119    -0.021810550069308
 120    -0.00057243606657455
 121     0.049168087172431
 122    -0.036474007186001
 123    -2.9470469074074e-05
 124     0.088167415333485
 125    -0.063881074225751
 126    0.00070082708068488
 127    -0.00026002598147681
 128    -0.00014760545359411
 129    0.0011235027322912
 130    -0.0018947674249334
 131    0.00017049919607446
 132    -0.0011401136925149
 133    0.0017250451043494
 134    0.0024248573020087
 135    0.00042042230321057
 136    -0.0015521388337016
 137    -0.00049730744062715
 138    0.00072036308549586
 139    -0.0024571555497781
 140    -0.00090432183091611
 141    0.0020352120628963
 142    -0.0065318272294747
 143    -0.0020248183160933
 144    4.3134592700244e-05
 145    0.0003101117817303
 146    -0.00012781014117364
 147    -5.3133615158921e-05
 148    0.00031408146525277
 149    -0.00018101868868919
 150    0.0011886126104159
 151    -0.00091503143900731
 152    -0.007215114831216
 153    -0.0025471171367157
 154    -0.00054190482385621
 155    0.00090445372231221
 156    -0.0044513097677088
 157    -0.00099375745445261
 158    0.0017626264133588
 159    -0.0083261905239539
 160    0.00016375101728643
 161    -0.0010737438329056
 162    -0.00015525851910655
 163    -0.00028851713292088
 164    0.00013359621999417
 165    0.00018912012939659
 166    0.00016096990902067
 167    0.00040050709717523
 168    -0.0026828483225577
 169    0.0046674357854873
 170    0.0029472414169051
 171    0.0033146510060271
 172     0.001538244292614
 173    0.00099051976703295
 174    0.0058706756883221
 175    0.0027425884692056
 176    0.0014937002482373
 177    0.0094797434439814
 178    0.0053205185133951
 179    0.0046150138687648
 180    0.00038494983995768
 181    -0.00010768424795522
 182    0.00010945553932265