[Molden Format]
made by pyscf v[2.1.1]
[Atoms] (AU)
Fe   1   26     3.17068844873907     0.00098706064664     0.12237737881307
O   2   8     0.00000000000000     0.00000000000000    -0.89004350580623
Fe   3   26    -3.17068844873907    -0.00098706064664     0.12237737881307
Cl   4   17     3.53383895113107    -2.07485195383062     3.76228752659000
Cl   5   17     5.54152580550813    -1.85590924879884    -2.78672786652360
Cl   6   17     4.48169216485503     3.92976278472880    -0.95330240907949
Cl   7   17    -3.53383895113107     2.07485195383062     3.76228752659000
Cl   8   17    -5.54152580550813     1.85590924879884    -2.78672786652360
Cl   9   17    -4.48169216485503    -3.92976278472880    -0.95330240907949
[GTO]
1 0
 s    6 1.00
          60923.640643  0.0017552243692958
          9147.8893982   0.013449023284001
          2081.3505927   0.066678874640978
          587.55977067    0.23176348548844
           191.0904399    0.46945550248188
          65.732730112     0.3596824938678
 s    3 1.00
          127.25891928   -0.10723431835929
           14.83091301    0.62971616328466
          6.0653307408    0.44472317896179
 s    3 1.00
           10.44994371   -0.21694289195548
          1.7245228003    0.69457867408393
         0.71772177325    0.43298308896347
 s    1 1.00
        0.091449828308                   1
 s    1 1.00
        0.033706691021                   1
 p    5 1.00
          773.43750995  0.0091440529992506
          182.15149714   0.067887577136571
          57.547272758    0.26167978878504
          20.614988935    0.51088040113251
           7.634855789    0.33235475570224
 p    3 1.00
           3.871932799    0.33193859098144
          1.4924724132     0.5553666555499
         0.56061284958    0.23106034201617
 p    1 1.00
              0.134915                   1
 d    4 1.00
          38.968133419   0.033335938558743
          10.800067078    0.17766212505983
          3.6136457999      0.441281781625
          1.2129967888    0.57089200490673
 d    1 1.00
          0.3652439317                   1
 f    1 1.00
                 1.598                   1

2 0
 s    5 1.00
          2266.1767785  -0.0053893503921743
          340.87010191   -0.04023472138896
          77.363135167   -0.18008184205526
           21.47964494   -0.46828857657651
          6.6589433124   -0.44692617160187
 s    1 1.00
         0.80975975668                   1
 s    1 1.00
         0.25530772234                   1
 p    3 1.00
          17.721504317   0.062630248763161
           3.863550544    0.33331138482352
          1.0480920883    0.74148638308122
 p    1 1.00
         0.27641544411                   1
 d    1 1.00
                   1.2                   1

3 0
 s    6 1.00
          60923.640643  0.0017552243692958
          9147.8893982   0.013449023284001
          2081.3505927   0.066678874640978
          587.55977067    0.23176348548844
           191.0904399    0.46945550248188
          65.732730112     0.3596824938678
 s    3 1.00
          127.25891928   -0.10723431835929
           14.83091301    0.62971616328466
          6.0653307408    0.44472317896179
 s    3 1.00
           10.44994371   -0.21694289195548
          1.7245228003    0.69457867408393
         0.71772177325    0.43298308896347
 s    1 1.00
        0.091449828308                   1
 s    1 1.00
        0.033706691021                   1
 p    5 1.00
          773.43750995  0.0091440529992506
          182.15149714   0.067887577136571
          57.547272758    0.26167978878504
          20.614988935    0.51088040113251
           7.634855789    0.33235475570224
 p    3 1.00
           3.871932799    0.33193859098144
          1.4924724132     0.5553666555499
         0.56061284958    0.23106034201617
 p    1 1.00
              0.134915                   1
 d    4 1.00
          38.968133419   0.033335938558743
          10.800067078    0.17766212505983
          3.6136457999      0.441281781625
          1.2129967888    0.57089200490673
 d    1 1.00
          0.3652439317                   1
 f    1 1.00
                 1.598                   1

4 0
 s    5 1.00
          10449.827566  0.0054265953789407
          1571.7365221   0.040626378128836
          357.12065523    0.18359747852877
          100.25185935    0.47438948768198
          30.812727554    0.43735181104122
 s    3 1.00
          51.923789434  -0.092754154848099
          5.7045760975    0.56380825544207
          2.3508376809    0.50367044629712
 s    1 1.00
         0.44605124672                   1
 s    1 1.00
          0.1684885619                   1
 p    5 1.00
          307.66790569  -0.0088797025588865
          72.102015515  -0.064284071721237
          22.532680262   -0.24288739736006
          7.8991765444   -0.48340836369878
          2.8767268321   -0.38952563875509
 p    1 1.00
         0.77459363955                   1
 p    1 1.00
         0.21037699698                   1
 d    1 1.00
                  0.65                   1

5 0
 s    5 1.00
          10449.827566  0.0054265953789407
          1571.7365221   0.040626378128836
          357.12065523    0.18359747852877
          100.25185935    0.47438948768198
          30.812727554    0.43735181104122
 s    3 1.00
          51.923789434  -0.092754154848099
          5.7045760975    0.56380825544207
          2.3508376809    0.50367044629712
 s    1 1.00
         0.44605124672                   1
 s    1 1.00
          0.1684885619                   1
 p    5 1.00
          307.66790569  -0.0088797025588865
          72.102015515  -0.064284071721237
          22.532680262   -0.24288739736006
          7.8991765444   -0.48340836369878
          2.8767268321   -0.38952563875509
 p    1 1.00
         0.77459363955                   1
 p    1 1.00
         0.21037699698                   1
 d    1 1.00
                  0.65                   1

6 0
 s    5 1.00
          10449.827566  0.0054265953789407
          1571.7365221   0.040626378128836
          357.12065523    0.18359747852877
          100.25185935    0.47438948768198
          30.812727554    0.43735181104122
 s    3 1.00
          51.923789434  -0.092754154848099
          5.7045760975    0.56380825544207
          2.3508376809    0.50367044629712
 s    1 1.00
         0.44605124672                   1
 s    1 1.00
          0.1684885619                   1
 p    5 1.00
          307.66790569  -0.0088797025588865
          72.102015515  -0.064284071721237
          22.532680262   -0.24288739736006
          7.8991765444   -0.48340836369878
          2.8767268321   -0.38952563875509
 p    1 1.00
         0.77459363955                   1
 p    1 1.00
         0.21037699698                   1
 d    1 1.00
                  0.65                   1

7 0
 s    5 1.00
          10449.827566  0.0054265953789407
          1571.7365221   0.040626378128836
          357.12065523    0.18359747852877
          100.25185935    0.47438948768198
          30.812727554    0.43735181104122
 s    3 1.00
          51.923789434  -0.092754154848099
          5.7045760975    0.56380825544207
          2.3508376809    0.50367044629712
 s    1 1.00
         0.44605124672                   1
 s    1 1.00
          0.1684885619                   1
 p    5 1.00
          307.66790569  -0.0088797025588865
          72.102015515  -0.064284071721237
          22.532680262   -0.24288739736006
          7.8991765444   -0.48340836369878
          2.8767268321   -0.38952563875509
 p    1 1.00
         0.77459363955                   1
 p    1 1.00
         0.21037699698                   1
 d    1 1.00
                  0.65                   1

8 0
 s    5 1.00
          10449.827566  0.0054265953789407
          1571.7365221   0.040626378128836
          357.12065523    0.18359747852877
          100.25185935    0.47438948768198
          30.812727554    0.43735181104122
 s    3 1.00
          51.923789434  -0.092754154848099
          5.7045760975    0.56380825544207
          2.3508376809    0.50367044629712
 s    1 1.00
         0.44605124672                   1
 s    1 1.00
          0.1684885619                   1
 p    5 1.00
          307.66790569  -0.0088797025588865
          72.102015515  -0.064284071721237
          22.532680262   -0.24288739736006
          7.8991765444   -0.48340836369878
          2.8767268321   -0.38952563875509
 p    1 1.00
         0.77459363955                   1
 p    1 1.00
         0.21037699698                   1
 d    1 1.00
                  0.65                   1

9 0
 s    5 1.00
          10449.827566  0.0054265953789407
          1571.7365221   0.040626378128836
          357.12065523    0.18359747852877
          100.25185935    0.47438948768198
          30.812727554    0.43735181104122
 s    3 1.00
          51.923789434  -0.092754154848099
          5.7045760975    0.56380825544207
          2.3508376809    0.50367044629712
 s    1 1.00
         0.44605124672                   1
 s    1 1.00
          0.1684885619                   1
 p    5 1.00
          307.66790569  -0.0088797025588865
          72.102015515  -0.064284071721237
          22.532680262   -0.24288739736006
          7.8991765444   -0.48340836369878
          2.8767268321   -0.38952563875509
 p    1 1.00
         0.77459363955                   1
 p    1 1.00
         0.21037699698                   1
 d    1 1.00
                  0.65                   1

[5d]
[7f]
[9g]

[MO]
 Sym= A
 Ene=               0
 Spin= Alpha
 Occup=    1.00000
   1    0.0031683886569024
   2    0.0010352364651635
   3      0.08422180231057
   4      0.20314779955944
   5    -0.060765292011711
   6    -0.088413679879207
   7    -0.0016229980656561
   8    -0.031801198950391
   9      0.29132300385291
  10     0.005020465389915
  11      0.10412272524917
  12     0.069329174419668
  13    -0.00077881964859734
  14     0.018665149300644
  15    0.0058883108727475
  16    -0.0087847897556039
  17    -0.012173690412771
  18    -0.0047497241379965
  19    -0.0019282792737687
  20    0.0079540795455789
  21    -0.011510229879042
  22    -0.0087390641190005
  23    -0.012000818642732
  24    -0.0013066403801656
  25    0.0016689956033915
  26    0.0010952213195204
  27    -0.002177481320428
  28    -0.0010971656554706
  29    0.00041750116886878
  30    -0.0018127765701583
  31    -0.00074900628938186
  32     -0.43551987197514
  33      0.13895169730489
  34      0.10342607602596
  35    0.0083328858472413
  36    -0.00036488346122528
  37      0.00233349200224
  38     0.027951151337463
  39    -0.0015612982308395
  40     0.007563107504939
  41    -0.0016787188008887
  42    0.0014893803381387
  43    -7.8735901803822e-05
  44    0.0039206538608878
  45    -9.7429992848041e-05
  46    -0.0068320180147277
  47     0.020317584767103
  48    -0.091331605368863
  49    -0.046006260542951
  50     0.023334242143602
  51     0.013538065403803
  52    -0.00017184607039503
  53    0.0015139672934632
  54    -0.041526920934873
  55    0.00053386873191879
  56    -0.0048597203084062
  57     0.028743442000454
  58    0.00012528864664693
  59    -0.017264639471273
  60    -0.0084111528610981
  61    -0.011488664564101
  62    -0.0056240312086393
  63     0.017615864429929
  64    2.846000787322e-05
  65    -0.0060256619216561
  66     -0.01111674213412
  67    -0.0046915588678638
  68     0.014232393160401
  69     0.000106593253361
  70    1.329331474672e-05
  71    -9.204367346301e-05
  72    -0.00069688727596238
  73    -0.00042235846767548
  74    -9.5138579619165e-05
  75    0.00035370952756008
  76    -0.00025145923895045
  77     0.012293509736072
  78    -0.086331139605819
  79      0.18625905195542
  80      0.10640290878229
  81     0.015780608716361
  82     0.029322661468792
  83    -0.039786609576715
  84     0.024646153849618
  85      0.06328281706783
  86    -0.091718713355782
  87     0.035982717975343
  88     0.085492338138595
  89     -0.11876544043517
  90    0.0087716420842595
  91    -0.00049863160845262
  92    -0.011394575303956
  93    -0.0037186569810585
  94    0.00028070851046297
  95     0.011769652648405
  96     -0.08312971180711
  97      0.18373901007481
  98      0.10258105870578
  99    -0.0077773395745534
 100     0.019179950148701
 101     0.041543689694086
 102    -0.028793305242916
 103     0.045566195542881
 104     0.089974767764984
 105     -0.03450381506103
 106     0.054855475480798
 107      0.11893266997012
 108    0.0054486651784127
 109    -0.0088557775965222
 110    0.0082308440536625
 111    0.00011061673581423
 112    -0.0050524172160527
 113     0.010660535380776
 114    -0.075512630902808
 115      0.16797207798076
 116     0.097387326894269
 117    0.0086433322175376
 118    -0.038560600224549
 119     0.023521839973521
 120    0.0070456463100763
 121    -0.090181858491595
 122     0.045888716101616
 123     0.012770505844587
 124     -0.11546573279322
 125     0.068027822254384
 126    -0.003953040462538
 127    -0.0013354264825886
 128    -0.0067055344027676
 129    -0.0090349041056006
 130    0.0036100852208142
 131    -0.0029567235587966
 132     0.020226520854014
 133    -0.041313285755569
 134    -0.016960054003219
 135    -0.0031910700573897
 136     0.010076705101778
 137     0.017717326613792
 138    -0.0052263541830083
 139     0.019770182023379
 140     0.034724029190306
 141    -0.0075413626471575
 142     0.025004893274817
 143     0.044962676527329
 144    -0.0027462772887626
 145    0.00044048441419624
 146    -0.003146153400719
 147    0.0010825135854648
 148    0.0002879621640648
 149    -0.0030132607728372
 150     0.020729373875593
 151    -0.040867690233821
 152    -0.027304213749044
 153    -0.011281721250018
 154     0.005406963966261
 155    -0.010604485840982
 156    -0.021807427060631
 157     0.011595532821847
 158     -0.02173353077622
 159    -0.033658400157317
 160     0.015506501514816
 161     -0.02939477479536
 162    -0.00096617854702088
 163    -0.0031336733633862
 164    0.0021742897315893
 165    -0.00042001561939479
 166    0.0019393151785784
 167    -0.0032056435253488
 168     0.021846973408842
 169    -0.042084990913008
 170    -0.025149387462185
 171    -0.0099744517544582
 172     -0.01608841604153
 173    -0.0056727889537808
 174    -0.018199214941161
 175    -0.031984720465617
 176    -0.010855902787259
 177    -0.027597440332749
 178     -0.04415765773273
 179    -0.014809384898933
 180    0.0015065021991541
 181    -0.00076474159190024
 182    -0.0018282822334951
 183    0.0028957843888168
 184    -0.0021513345941489
 Sym= A
 Ene=               1
 Spin= Alpha
 Occup=    1.00000
   1    0.0012593205022932
   2    -0.0037524639092407
   3     0.016726434716708
   4    -0.031043637082036
   5     0.013688472405925
   6    0.00072603024038548
   7    0.0014770267831499
   8    -0.0047806976266063
   9    -0.0023030613557088
  10    -0.0046615289497987
  11     0.014835013730178
  12    0.0018880625038566
  13    0.0054657813772346
  14      -0.0210004583913
  15      0.20061838781119
  16     -0.47963104579917
  17     -0.48255786727496
  18      0.43413386991662
  19      0.28062966789724
  20     0.053757387131067
  21     -0.12876784694148
  22      -0.1306136206613
  23      0.11793971139054
  24     0.075491763608808
  25    0.0010556328237216
  26    -0.0010374940472573
  27    -0.00097655444592688
  28    -0.00024264928658335
  29    -0.00029719169651113
  30    0.00087006587211242
  31    0.00056308107402767
  32    0.0018702129040755
  33    0.0048380718167379
  34    0.0021529833060337
  35    0.0078065916383587
  36     0.012219813170043
  37    -0.042312669994915
  38    0.0095992021201435
  39     0.013564052913426
  40    -0.046756645605768
  41    -9.7380103730007e-05
  42    0.0011896831463768
  43    -0.00022674833988671
  44    -0.0001118984599053
  45    -0.00019455218711284
  46    0.00052203398416331
  47    -0.0015665518238521
  48    0.0069211464544305
  49    -0.0063765274191243
  50    0.0010549194190887
  51    -0.0024682194171934
  52    0.00051970662252574
  53    -0.00080745930973022
  54    0.0078843591323336
  55    -0.0016508501033899
  56    0.0025636664079898
  57    -0.0061227780179423
  58    0.0028364039920449
  59    -0.0077663290585545
  60    0.00076928704126064
  61    0.00015571545708218
  62    -4.3919532526119e-05
  63    -0.0015271453034784
  64    0.00017999073373571
  65    0.0011049720640359
  66    -0.0018654529656493
  67    -0.00013770715050467
  68    -0.00054572707399422
  69    0.00065268290948405
  70    4.4825087647695e-05
  71    0.00036035021644033
  72    1.6674969597127e-05
  73    -8.3129395379754e-05
  74    -5.7844151130181e-05
  75    -0.00025880002903462
  76    0.00010961201626307
  77    -0.0013801345304411
  78     0.009056215761255
  79    -0.011532539340156
  80    -0.0067487145355266
  81     0.018081850331746
  82    -0.0080312733227405
  83     0.010040379020311
  84     0.030674875091939
  85    -0.013858025883076
  86     0.017505770691556
  87     0.050543614123307
  88    -0.022306033549775
  89     0.027991409606619
  90    -0.0004960129665125
  91    0.0019981741986842
  92    -0.00044329460474525
  93    0.00088990090141877
  94    -0.0012577758553401
  95    7.6320987204672e-05
  96    -0.00051816330457128
  97    0.0021242546138849
  98    -0.0043562675779207
  99    -0.011774408575034
 100    -0.025710123441939
 101    0.0079812955961967
 102    -0.019871349194048
 103    -0.043347540113473
 104     0.013298636772084
 105    -0.031867674654762
 106    -0.073828536267572
 107     0.022187959127681
 108    -0.000698218175668
 109    0.0013550580144872
 110     0.001665584912079
 111    -0.0020621244574592
 112    -0.0012618058228179
 113    0.0001947481186925
 114    -0.0012879222633235
 115    0.0029569345064192
 116    -0.0024903274471781
 117    -0.013229031049452
 118     0.007810187042659
 119     0.021905086558566
 120    -0.022179929017238
 121     0.013177466664209
 122     0.036756751554179
 123    -0.037091951947601
 124     0.023060921226128
 125     0.062042028612154
 126    -0.00098525393099813
 127    0.0012675677317327
 128    0.0015437517430431
 129    -0.0016809907643837
 130    -0.00081511398635365
 131    0.00021135734101329
 132    -0.0014238303310264
 133    0.0026223417603785
 134    0.0013322263062051
 135    0.0015285478419126
 136    -0.00080001046470539
 137    -0.00074129552504162
 138    0.0028141649564924
 139    -0.0013686943894963
 140    -0.0012849711987593
 141    0.0036639914722941
 142    -0.0030698317024178
 143    -0.0028941703577177
 144    9.7897153925507e-05
 145    0.00028755535986668
 146    -5.4689946572301e-05
 147    -0.00016065157721037
 148    0.00023015259854639
 149    -8.4624270943007e-05
 150    0.00055964312019839
 151    -0.00051685520752384
 152    -0.0030298853882739
 153    -0.0010920132109163
 154    -5.986089267061e-05
 155    0.00066684135332996
 156    -0.0019018634345248
 157    -0.00014187691284417
 158    0.0011856481829802
 159    -0.0036288686445225
 160    0.00076387595737299
 161    0.00052204404191671
 162    -2.7948646661812e-05
 163    -0.00013867094410182
 164    4.4923495945784e-05
 165    7.5452967707241e-05
 166    3.5752113856722e-05
 167    9.1820095919803e-05
 168    -0.00061859039986197
 169    0.0012694665350417
 170    -0.00024932814106821
 171    0.0007302123953864
 172    0.00036778668521416
 173    0.00076649373330962
 174    0.0013271015200535
 175    0.00065863237763396
 176    0.0012636351846967
 177    0.0018920547781095
 178    0.00086648782360981
 179    0.0025772669005086
 180    9.8632421169814e-05
 181    -0.00012483573351958
 182    -1.1007003656329e-05
 183    -9.8957938047509e-05
 184    -0.00017412767908577
 Sym= A
 Ene=               2
 Spin= Alpha
 Occup=    1.00000
   1    0.0008300819854847
   2    -0.0024744596781185
   3      0.01101618106867
   4     -0.02082026703149
   5    0.0072656088009045
   6    7.6883332500786e-05
   7    -0.0065012056943964
   8    -0.0032791787805641
   9    -0.0002203018720324
  10      0.01997103809685
  11     0.010003863059913
  12    -0.0013025608662935
  13    -0.026843718139199
  14    -0.015053719469032
  15     -0.52523800718832
  16     -0.15543475848141
  17     -0.46430480995151
  18     -0.13033006523674
  19     -0.48808533506163
  20     -0.14124817753945
  21    -0.041112185665595
  22     -0.12482173281553
  23     -0.03450478960481
  24     -0.12997419378525
  25    -0.00060291960058106
  26    -0.0013235638765184
  27    -0.00056040345553014
  28    -0.00066117150981529
  29    -0.0016799594829805
  30    -9.2790606335985e-05
  31    -0.0014635217604819
  32    0.0022338705158886
  33    0.0055708390656735
  34    0.0026151821295991
  35    0.0083453376303626
  36    -0.064242410445686
  37    -0.036155163827613
  38     0.010328261675686
  39    -0.070505603409063
  40    -0.040138277308683
  41    -0.00053781582247911
  42    0.0012253588950773
  43    -0.00097842194704739
  44    -0.00049200970396485
  45    0.0016934422026485
  46    0.00051272621937199
  47    -0.0015259613341891
  48    0.0068523286163339
  49    -0.0073571435467959
  50    0.0018460428945912
  51    -0.0022170499516752
  52    -0.0022066284302563
  53    -0.00048045209501893
  54    0.0070857914784244
  55    0.0070056935928192
  56    0.0015261798242232
  57    -0.0049902051550636
  58    -0.012787115827242
  59    -0.006223437923545
  60    0.00074499839388088
  61    0.00050141842030881
  62    -6.3863076077746e-05
  63    -0.0013057456462347
  64    -0.0003789766263652
  65    0.00095189684619552
  66    -0.0016328679540615
  67    0.00097117942973731
  68    -0.00034825948614341
  69    -0.0040123822240109
  70    1.6322844915026e-05
  71    0.00030687833535391
  72    0.00013268213368248
  73    -0.00010428223875616
  74    0.00032228963765749
  75    -0.00024751861032747
  76    -0.00060767824529255
  77    -8.5562035875326e-05
  78    0.00055930383768759
  79    -0.00024181751404515
  80    -0.00092373449267705
  81    -0.003166120720281
  82     0.022859341418839
  83     0.013961809181776
  84    -0.0053239718929898
  85     0.038554697744762
  86     0.023682100563149
  87    -0.0089772186752233
  88     0.065328262376462
  89     0.039877673509408
  90    0.0025873520341029
  91    -0.00044669014513924
  92    0.0013224054622659
  93    0.0014300051608568
  94    0.00010332344561736
  95    0.00042477562415426
  96    -0.0028355451769917
  97     0.005256356411636
  98    -0.0032522360578777
  99    -0.016217237680143
 100      0.00986008955217
 101     -0.01386491539021
 102    -0.027529784077829
 103     0.016554568171331
 104    -0.023311862549804
 105    -0.043867191563549
 106      0.02826857419268
 107     -0.04019866255188
 108    0.0024350660750063
 109    3.0915097596483e-05
 110    1.5066660051009e-06
 111    -0.00090107250505344
 112    0.0012592415670768
 113    -0.0010969416609168
 114    0.0071927067990931
 115    -0.0095475176091328
 116    -0.0034482076519101
 117     0.015791865294931
 118    0.0090411450837107
 119    0.0077774719441179
 120     0.026667063573331
 121     0.015519761935248
 122     0.013032355241869
 123     0.044045125336493
 124     0.025077255988594
 125     0.022567263160526
 126    -0.00097050379311721
 127    -0.00022227100972578
 128     0.001165600587298
 129    0.00083437173428077
 130    0.0012077268609446
 131    0.00027757446600773
 132    -0.0018315117247835
 133    0.0024095061671887
 134    0.0049087248355785
 135    0.0024057487163371
 136    5.2315357462015e-05
 137    -0.0018975092001428
 138    0.0042078143618097
 139    0.00014374246531407
 140    -0.0032110993805707
 141    0.0064838753657994
 142    -0.0010388810868193
 143    -0.0076692589968683
 144    2.8250475774859e-05
 145    0.00048197506774926
 146    4.6887516698559e-05
 147    -0.00026545371539009
 148    7.448081553803e-05
 149    9.0860076760627e-05
 150    -0.00060725931347754
 151     0.001144467258739
 152    8.9740571894571e-05
 153    0.00086502064127661
 154    0.00046022173150191
 155    0.00075960331651547
 156    0.0015441215463167
 157    0.00067432318678517
 158    0.0012160594391698
 159    0.0023677987751681
 160     0.002209102032754
 161    0.0026994410672991
 162    0.00016243273158476
 163    -0.00011671284387382
 164    1.5597659260069e-05
 165    -0.0001167854691267
 166    -1.5951371745804e-05
 167    -0.00027435624576963
 168    0.0018238605757523
 169    -0.0026939087869756
 170    -0.0041861407082782
 171    -0.0030428411105028
 172    -0.00086478647643701
 173    0.00081899879658554
 174    -0.0054446851419789
 175    -0.0014656963014649
 176    0.0014724009053577
 177    -0.0078022525362149
 178    -0.0044788363523355
 179     0.001406374046871
 180    -0.00010530170829846
 181    -0.00021188305859254
 182    -0.00016660177238026
 183    0.00048170992842724
 184    0.00015535824091985
 Sym= A
 Ene=               3
 Spin= Alpha
 Occup=    1.00000
   1    -0.00060724442054787
   2     0.001805948932371
   3    -0.0080870155046994
   4     0.010232832790007
   5     0.001678334040812
   6    -0.0022944020632205
   7    -0.0045125527113181
   8    0.0042410016195429
   9    0.0071100364431648
  10     0.014278943192791
  11    -0.013509621516655
  12     -0.00684065224826
  13    -0.0088554962701267
  14    0.0071070628669981
  15     -0.55672541963078
  16     -0.37384413319466
  17      0.30184162252306
  18     -0.11308911335329
  19      0.46352745775593
  20     -0.14596183615469
  21    -0.096655561649915
  22     0.078960852259848
  23    -0.030877337781068
  24      0.11984046711468
  25    -0.0002042831325504
  26    -0.001801715442021
  27    -4.5270270413296e-05
  28    -0.0015667573317516
  29    0.0013118320102411
  30    0.00020411257478627
  31    0.0018236079135574
  32    0.0048964381216114
  33     0.011429450584673
  34    0.0091883961690061
  35     0.022119523234415
  36     0.067991879329198
  37    -0.062182568525923
  38     0.027935684656538
  39      0.07595948667653
  40     -0.06889308993918
  41    -0.00056713316658524
  42    0.0020649751063254
  43    0.00097187831350341
  44    -0.0011062876717075
  45    -0.0018355865003714
  46    0.00098850035567323
  47    -0.002939249395207
  48     0.013231048870544
  49    -0.012560120648677
  50    0.0041844041760857
  51    -0.0044326183411958
  52     0.002527912874166
  53    -0.00099271770940458
  54     0.014231844724366
  55    -0.0080265632884986
  56    0.0031632752357888
  57    -0.012218015339257
  58     0.014078587982906
  59    -0.012680683193954
  60    0.0014636780995006
  61    0.0011446028392544
  62    -0.00014356745672187
  63    -0.0029639764188091
  64    0.00042414841316281
  65    0.0018130463953652
  66    -0.0027828901321709
  67    -0.0013812734537527
  68    -0.0016609146464785
  69    0.0042086852588205
  70    1.4646407149179e-05
  71    0.00055514274862582
  72    -5.8252721639592e-05
  73    -8.2030327389956e-06
  74    -0.0003443281216702
  75    -0.00045058458188397
  76    0.00064098346733866
  77    0.0036706949168561
  78     -0.02405039982342
  79     0.029964469352071
  80     0.030003822214328
  81      0.01051237304304
  82     0.027791238796181
  83    -0.029918310924136
  84     0.017566491072374
  85     0.047295697650713
  86    -0.051332209551654
  87     0.029827426602236
  88     0.082874219483533
  89    -0.091455715965352
  90    0.0011803227889155
  91    0.0018666722512655
  92    -3.2247508614282e-05
  93    3.047980801539e-05
  94    -0.00043749194640124
  95    -0.0004941700240989
  96    0.0032091483965829
  97    -0.0035458118545074
  98    -0.0057043968165548
  99    0.00069986571985385
 100    0.0051537040852717
 101    -0.011297471168937
 102    0.0012312205017615
 103    0.0088846706669977
 104    -0.019254966799835
 105    0.0027675394315928
 106     0.013448177149472
 107    -0.032190318854223
 108    0.00081682643336072
 109    -0.00044832899825728
 110    -0.00033142376822082
 111     0.000372443225797
 112    0.0015673861285908
 113    -0.0028924424017947
 114     0.018829876518068
 115    -0.022692117039005
 116    -0.025470054308554
 117    -0.00046708380348193
 118       0.0291628859001
 119     -0.02181455077637
 120    -0.00054801753163388
 121      0.04922913788388
 122    -0.036491292879835
 123    1.3051024722176e-05
 124     0.087876039891803
 125    -0.063832237799845
 126    0.00072782648695722
 127    -0.00027439931986551
 128    -0.00018005215331066
 129    0.0010617085862654
 130    -0.0019682012855197
 131    0.00014863133669487
 132    -0.0009877520400652
 133    0.0013878435805167
 134    0.0023217637216112
 135    0.00037823924077224
 136    -0.0014671259249687
 137    -0.00041038375378502
 138    0.00064756566399175
 139    -0.0023115407130166
 140    -0.00072029712877753
 141    0.0018526429599325
 142    -0.0061331686952976
 143    -0.0018127277470837
 144    3.1534673619303e-05
 145    0.00029900417405715
 146    -0.00012628603594915
 147    -4.0236287309095e-05
 148    0.00028722102380999
 149    -0.00019315272108413
 150    0.0012740592819374
 151    -0.0011763585242187
 152    -0.0067499141682601
 153    -0.0026250920845227
 154    -0.00051137698906022
 155    0.00087372017044804
 156    -0.0045893072048787
 157    -0.0009258249394272
 158    0.0016685691597191
 159    -0.0083997567728345
 160    0.00016092359369272
 161    -0.0009077645188655
 162    -0.00011386011329238
 163    -0.00028878195218974
 164    0.00011716346434494
 165    0.00014977474099595
 166    0.00016357881912039
 167    0.00037906272478596
 168    -0.0025302995191065
 169    0.0043081690757849
 170    0.0027491269136584
 171    0.0032745586974261
 172    0.0014507424152941
 173    0.00094060967764972
 174    0.0057812209319297
 175    0.0025649449729133
 176    0.0014171587783375
 177    0.0092858799076363
 178    0.0049704310276195
 179    0.0043213063900814
 180    0.00035322997974978
 181    -9.1943132369086e-05
 182    9.3638522262976e-05
 183    -0.00045545487001831