[Molden Format]
made by pyscf v[2.1.1]
[Atoms] (AU)
Fe   1   26     3.17068844873907     0.00098706064664     0.12237737881307
O   2   8     0.00000000000000     0.00000000000000    -0.89004350580623
Fe   3   26    -3.17068844873907    -0.00098706064664     0.12237737881307
Cl   4   17     3.53383895113107    -2.07485195383062     3.76228752659000
Cl   5   17     5.54152580550813    -1.85590924879884    -2.78672786652360
Cl   6   17     4.48169216485503     3.92976278472880    -0.95330240907949
Cl   7   17    -3.53383895113107     2.07485195383062     3.76228752659000
Cl   8   17    -5.54152580550813     1.85590924879884    -2.78672786652360
Cl   9   17    -4.48169216485503    -3.92976278472880    -0.95330240907949
[GTO]
1 0
 s    6 1.00
          60923.640643  0.0017552243692958
          9147.8893982   0.013449023284001
          2081.3505927   0.066678874640978
          587.55977067    0.23176348548844
           191.0904399    0.46945550248188
          65.732730112     0.3596824938678
 s    3 1.00
          127.25891928   -0.10723431835929
           14.83091301    0.62971616328466
          6.0653307408    0.44472317896179
 s    3 1.00
           10.44994371   -0.21694289195548
          1.7245228003    0.69457867408393
         0.71772177325    0.43298308896347
 s    1 1.00
        0.091449828308                   1
 s    1 1.00
        0.033706691021                   1
 p    5 1.00
          773.43750995  0.0091440529992506
          182.15149714   0.067887577136571
          57.547272758    0.26167978878504
          20.614988935    0.51088040113251
           7.634855789    0.33235475570224
 p    3 1.00
           3.871932799    0.33193859098144
          1.4924724132     0.5553666555499
         0.56061284958    0.23106034201617
 p    1 1.00
              0.134915                   1
 d    4 1.00
          38.968133419   0.033335938558743
          10.800067078    0.17766212505983
          3.6136457999      0.441281781625
          1.2129967888    0.57089200490673
 d    1 1.00
          0.3652439317                   1
 f    1 1.00
                 1.598                   1

2 0
 s    5 1.00
          2266.1767785  -0.0053893503921743
          340.87010191   -0.04023472138896
          77.363135167   -0.18008184205526
           21.47964494   -0.46828857657651
          6.6589433124   -0.44692617160187
 s    1 1.00
         0.80975975668                   1
 s    1 1.00
         0.25530772234                   1
 p    3 1.00
          17.721504317   0.062630248763161
           3.863550544    0.33331138482352
          1.0480920883    0.74148638308122
 p    1 1.00
         0.27641544411                   1
 d    1 1.00
                   1.2                   1

3 0
 s    6 1.00
          60923.640643  0.0017552243692958
          9147.8893982   0.013449023284001
          2081.3505927   0.066678874640978
          587.55977067    0.23176348548844
           191.0904399    0.46945550248188
          65.732730112     0.3596824938678
 s    3 1.00
          127.25891928   -0.10723431835929
           14.83091301    0.62971616328466
          6.0653307408    0.44472317896179
 s    3 1.00
           10.44994371   -0.21694289195548
          1.7245228003    0.69457867408393
         0.71772177325    0.43298308896347
 s    1 1.00
        0.091449828308                   1
 s    1 1.00
        0.033706691021                   1
 p    5 1.00
          773.43750995  0.0091440529992506
          182.15149714   0.067887577136571
          57.547272758    0.26167978878504
          20.614988935    0.51088040113251
           7.634855789    0.33235475570224
 p    3 1.00
           3.871932799    0.33193859098144
          1.4924724132     0.5553666555499
         0.56061284958    0.23106034201617
 p    1 1.00
              0.134915                   1
 d    4 1.00
          38.968133419   0.033335938558743
          10.800067078    0.17766212505983
          3.6136457999      0.441281781625
          1.2129967888    0.57089200490673
 d    1 1.00
          0.3652439317                   1
 f    1 1.00
                 1.598                   1

4 0
 s    5 1.00
          10449.827566  0.0054265953789407
          1571.7365221   0.040626378128836
          357.12065523    0.18359747852877
          100.25185935    0.47438948768198
          30.812727554    0.43735181104122
 s    3 1.00
          51.923789434  -0.092754154848099
          5.7045760975    0.56380825544207
          2.3508376809    0.50367044629712
 s    1 1.00
         0.44605124672                   1
 s    1 1.00
          0.1684885619                   1
 p    5 1.00
          307.66790569  -0.0088797025588865
          72.102015515  -0.064284071721237
          22.532680262   -0.24288739736006
          7.8991765444   -0.48340836369878
          2.8767268321   -0.38952563875509
 p    1 1.00
         0.77459363955                   1
 p    1 1.00
         0.21037699698                   1
 d    1 1.00
                  0.65                   1

5 0
 s    5 1.00
          10449.827566  0.0054265953789407
          1571.7365221   0.040626378128836
          357.12065523    0.18359747852877
          100.25185935    0.47438948768198
          30.812727554    0.43735181104122
 s    3 1.00
          51.923789434  -0.092754154848099
          5.7045760975    0.56380825544207
          2.3508376809    0.50367044629712
 s    1 1.00
         0.44605124672                   1
 s    1 1.00
          0.1684885619                   1
 p    5 1.00
          307.66790569  -0.0088797025588865
          72.102015515  -0.064284071721237
          22.532680262   -0.24288739736006
          7.8991765444   -0.48340836369878
          2.8767268321   -0.38952563875509
 p    1 1.00
         0.77459363955                   1
 p    1 1.00
         0.21037699698                   1
 d    1 1.00
                  0.65                   1

6 0
 s    5 1.00
          10449.827566  0.0054265953789407
          1571.7365221   0.040626378128836
          357.12065523    0.18359747852877
          100.25185935    0.47438948768198
          30.812727554    0.43735181104122
 s    3 1.00
          51.923789434  -0.092754154848099
          5.7045760975    0.56380825544207
          2.3508376809    0.50367044629712
 s    1 1.00
         0.44605124672                   1
 s    1 1.00
          0.1684885619                   1
 p    5 1.00
          307.66790569  -0.0088797025588865
          72.102015515  -0.064284071721237
          22.532680262   -0.24288739736006
          7.8991765444   -0.48340836369878
          2.8767268321   -0.38952563875509
 p    1 1.00
         0.77459363955                   1
 p    1 1.00
         0.21037699698                   1
 d    1 1.00
                  0.65                   1

7 0
 s    5 1.00
          10449.827566  0.0054265953789407
          1571.7365221   0.040626378128836
          357.12065523    0.18359747852877
          100.25185935    0.47438948768198
          30.812727554    0.43735181104122
 s    3 1.00
          51.923789434  -0.092754154848099
          5.7045760975    0.56380825544207
          2.3508376809    0.50367044629712
 s    1 1.00
         0.44605124672                   1
 s    1 1.00
          0.1684885619                   1
 p    5 1.00
          307.66790569  -0.0088797025588865
          72.102015515  -0.064284071721237
          22.532680262   -0.24288739736006
          7.8991765444   -0.48340836369878
          2.8767268321   -0.38952563875509
 p    1 1.00
         0.77459363955                   1
 p    1 1.00
         0.21037699698                   1
 d    1 1.00
                  0.65                   1

8 0
 s    5 1.00
          10449.827566  0.0054265953789407
          1571.7365221   0.040626378128836
          357.12065523    0.18359747852877
          100.25185935    0.47438948768198
          30.812727554    0.43735181104122
 s    3 1.00
          51.923789434  -0.092754154848099
          5.7045760975    0.56380825544207
          2.3508376809    0.50367044629712
 s    1 1.00
         0.44605124672                   1
 s    1 1.00
          0.1684885619                   1
 p    5 1.00
          307.66790569  -0.0088797025588865
          72.102015515  -0.064284071721237
          22.532680262   -0.24288739736006
          7.8991765444   -0.48340836369878
          2.8767268321   -0.38952563875509
 p    1 1.00
         0.77459363955                   1
 p    1 1.00
         0.21037699698                   1
 d    1 1.00
                  0.65                   1

9 0
 s    5 1.00
          10449.827566  0.0054265953789407
          1571.7365221   0.040626378128836
          357.12065523    0.18359747852877
          100.25185935    0.47438948768198
          30.812727554    0.43735181104122
 s    3 1.00
          51.923789434  -0.092754154848099
          5.7045760975    0.56380825544207
          2.3508376809    0.50367044629712
 s    1 1.00
         0.44605124672                   1
 s    1 1.00
          0.1684885619                   1
 p    5 1.00
          307.66790569  -0.0088797025588865
          72.102015515  -0.064284071721237
          22.532680262   -0.24288739736006
          7.8991765444   -0.48340836369878
          2.8767268321   -0.38952563875509
 p    1 1.00
         0.77459363955                   1
 p    1 1.00
         0.21037699698                   1
 d    1 1.00
                  0.65                   1

[5d]
[7f]
[9g]

[MO]
 Sym= A
 Ene=               0
 Spin= Alpha
 Occup=    1.00000
   1     0.017073596542573
   2    -0.051625500992027
   3      0.22628637279191
   4      0.12872161160396
   5    -0.030435627911211
   6     0.057988904151515
   7    0.0002527690477779
   8     0.015788142228329
   9     -0.18990578518023
  10    -0.00082759196503378
  11    -0.052017834472496
  12    0.0041643972661397
  13    0.0039986847058268
  14     -0.01196650308563
  15    0.0062057577240168
  16    0.0011478109600882
  17    -0.0098156252237046
  18    -0.0069280683573093
  19    0.00018441737184379
  20     0.005271092901778
  21    0.0010751360955055
  22    -0.0052512594587091
  23    -0.0068709208424025
  24    0.00019214368400261
  25     0.001453640493765
  26    0.0007413183976338
  27    -0.0010863953093805
  28    -0.001396638953518
  29    0.00017414990073626
  30    -0.0018383722633602
  31    -0.00038604470377588
  32      0.58460592179243
  33      0.29222145860816
  34      0.24665048332644
  35    2.2682121836667e-16
  36    -4.247732595499e-17
  37       -0.019127677952
  38    1.8554858086402e-16
  39    -3.3087266464004e-17
  40    -0.0093773357957201
  41    -0.0046403707841862
  42    5.7949155839007e-18
  43    -5.8894068380696e-19
  44    0.0090897211227997
  45    4.5011100916037e-05
  46     0.017073596542573
  47    -0.051625500992027
  48      0.22628637279191
  49      0.12872161160396
  50    -0.030435627911211
  51    -0.057988904151515
  52    -0.00025276904777765
  53     0.015788142228329
  54      0.18990578518023
  55    0.00082759196503379
  56    -0.052017834472496
  57    -0.0041643972661397
  58    -0.0039986847058268
  59     -0.01196650308563
  60    0.0062057577240168
  61    -0.0011478109600882
  62    0.0098156252237047
  63    -0.0069280683573094
  64    0.00018441737184382
  65     0.005271092901778
  66    -0.0010751360955055
  67    0.0052512594587091
  68    -0.0068709208424025
  69    0.00019214368400262
  70     0.001453640493765
  71    -0.0007413183976338
  72    0.0010863953093805
  73    -0.001396638953518
  74    0.00017414990073626
  75    0.0018383722633602
  76    0.00038604470377587
  77    0.0045563359165916
  78    -0.030231127670997
  79     0.049959165283991
  80      0.03389013946715
  81     -0.01946606058879
  82     0.014810108210899
  83     -0.02867884553282
  84    -0.033367670708131
  85     0.027199125421301
  86    -0.052776106526786
  87     -0.05226388925075
  88     0.039178352731393
  89    -0.073847937075426
  90    0.0049322802117643
  91    0.0021013467133802
  92    -0.0058707625426168
  93    -0.0016913753741097
  94    -0.001327201165327
  95     0.004193896963372
  96    -0.028035816176057
  97     0.050057159103872
  98     0.020983296656644
  99    -0.029029513890085
 100    0.0088112781489131
 101     0.012774626026535
 102    -0.051853125370511
 103     0.017615687341116
 104      0.02512222856407
 105    -0.073995294119041
 106     0.018556515000459
 107     0.030292533015678
 108    0.00093162148789779
 109    -0.0054356358773896
 110    0.0031482107091627
 111    0.0014276578959469
 112    -0.0034194548250116
 113    0.0048865444474215
 114    -0.032381383884445
 115      0.05476537631913
 116     0.026071504452184
 117    -0.027909557060496
 118    -0.027664687659723
 119    0.0053398492074264
 120    -0.048787205280442
 121    -0.051652609464459
 122    0.0097069256624124
 123    -0.072612093347599
 124    -0.066180836656535
 125     0.014990427261404
 126    -0.002863424346993
 127    -0.0014935836376985
 128    -0.0029896381906172
 129    -0.0044004947726635
 130    0.0047059533002964
 131    0.0045563359165916
 132    -0.030231127670997
 133     0.049959165283991
 134      0.03389013946715
 135      0.01946606058879
 136    -0.014810108210899
 137     -0.02867884553282
 138     0.033367670708131
 139    -0.027199125421301
 140    -0.052776106526786
 141      0.05226388925075
 142    -0.039178352731393
 143    -0.073847937075426
 144    0.0049322802117643
 145    -0.0021013467133802
 146    0.0058707625426168
 147    -0.0016913753741097
 148    -0.001327201165327
 149    0.0041938969633721
 150    -0.028035816176057
 151     0.050057159103872
 152     0.020983296656644
 153     0.029029513890085
 154    -0.0088112781489131
 155     0.012774626026535
 156     0.051853125370511
 157    -0.017615687341116
 158      0.02512222856407
 159     0.073995294119041
 160    -0.018556515000459
 161     0.030292533015678
 162    0.00093162148789779
 163    0.0054356358773896
 164    -0.0031482107091627
 165    0.0014276578959469
 166    -0.0034194548250116
 167    0.0048865444474215
 168    -0.032381383884445
 169      0.05476537631913
 170     0.026071504452184
 171     0.027909557060496
 172     0.027664687659723
 173    0.0053398492074264
 174     0.048787205280442
 175     0.051652609464459
 176    0.0097069256624124
 177     0.072612093347599
 178     0.066180836656535
 179     0.014990427261404
 180    -0.002863424346993
 181    0.0014935836376985
 182    0.0029896381906172
 183    -0.0044004947726635
 184    0.0047059533002964
 Sym= A
 Ene=               1
 Spin= Alpha
 Occup=    1.00000
   1     0.032121750651683
   2    -0.098011627370566
   3      0.42515423490122
   4     0.033744407705295
   5     -0.04551836048939
   6      0.15287504412187
   7    8.0320239425156e-05
   8     0.060809948210525
   9     -0.51348153118266
  10    -0.0002503776341668
  11     -0.20157781531527
  12    0.0092071060127154
  13    0.0059800502821228
  14    -0.013689982997791
  15     0.017416942687327
  16    -0.033396554244015
  17    -0.0016226650966805
  18    -0.046887767948464
  19    0.0013755751540406
  20      0.00777420962825
  21    -0.015922390850952
  22    6.8326591698356e-05
  23    -0.023370547934228
  24    0.0011003075843829
  25    -0.00046068420345408
  26    -0.00021799874756566
  27    -0.00030597619667185
  28    0.00096068501072873
  29    5.7525345529085e-05
  30    0.00065246807816124
  31    -0.00023626741121118
  32    1.1556577063841e-16
  33    9.7386347465079e-18
  34    2.2200282130436e-17
  35    -0.079557942023517
  36    -0.0015599369244209
  37    2.9857034783428e-17
  38    -0.081056528638486
  39    -0.0023023227267852
  40    2.9162956670989e-17
  41    4.729608353677e-19
  42      -0.0023050642719
  43    -7.5431989758506e-05
  44    2.9966763250655e-19
  45    4.8068278644145e-20
  46    -0.032121750651683
  47     0.098011627370566
  48     -0.42515423490122
  49    -0.033744407705295
  50      0.04551836048939
  51      0.15287504412187
  52    8.0320239425153e-05
  53    -0.060809948210525
  54     -0.51348153118266
  55    -0.00025037763416678
  56      0.20157781531527
  57    0.0092071060127154
  58    0.0059800502821228
  59     0.013689982997791
  60    -0.017416942687327
  61    -0.033396554244015
  62    -0.0016226650966805
  63     0.046887767948464
  64    -0.0013755751540406
  65     -0.00777420962825
  66    -0.015922390850952
  67    6.8326591698344e-05
  68     0.023370547934228
  69    -0.0011003075843829
  70    0.00046068420345407
  71    -0.00021799874756566
  72    -0.00030597619667185
  73    -0.00096068501072873
  74    -5.7525345529085e-05
  75    0.00065246807816124
  76    -0.00023626741121118
  77    -0.0012543735440428
  78     0.010623131575116
  79    -0.039257230293025
  80    -0.013391520330372
  81    -0.021450992387455
  82    0.00083006037902421
  83    -0.010990946377272
  84    -0.036233685724255
  85    -0.0027791462771958
  86    -0.011333468623166
  87    -0.054274869095862
  88    -0.0028941212115242
  89    -0.019418838923908
  90    0.0008296409944107
  91    0.0019171594316497
  92    -4.5115369117437e-05
  93    -2.7271236747563e-05
  94    -0.0012343576556132
  95    0.00083162916680658
  96    -0.0026308832239219
  97    -0.020963277087166
  98    -0.010544089313695
  99    -0.045643016497926
 100    0.0070524061170119
 101    -0.00035296704226635
 102    -0.073048954235204
 103    0.0085822847007119
 104    -0.0063828619900233
 105     -0.10911993933203
 106    0.0089037079766065
 107    -0.012890357114121
 108    -0.0013942936792739
 109    -0.0033459433884343
 110    0.0004879927404299
 111    0.0012244794313531
 112    -0.0022508243238623
 113    0.0017190019225948
 114    -0.0085852364410162
 115    -0.010758314195773
 116    -0.0047649393670331
 117     -0.04045979145553
 118    -0.025113930044393
 119    -0.0061840608462102
 120    -0.066994363598729
 121     -0.03582727043145
 122    -0.012774432575228
 123      -0.1011920062277
 124    -0.049639321727061
 125    -0.019267552686916
 126    -0.0016767784735005
 127    -0.0013902306230812
 128    -0.0005129927862614
 129    -0.0021097462991548
 130    0.0036180827748531
 131    0.0012543735440427
 132    -0.010623131575116
 133     0.039257230293025
 134     0.013391520330372
 135    -0.021450992387455
 136    0.00083006037902421
 137     0.010990946377272
 138    -0.036233685724255
 139    -0.0027791462771958
 140     0.011333468623166
 141    -0.054274869095862
 142    -0.0028941212115242
 143     0.019418838923908
 144    -0.00082964099441071
 145    0.0019171594316497
 146    -4.5115369117443e-05
 147    2.7271236747564e-05
 148    0.0012343576556132
 149    -0.00083162916680661
 150     0.002630883223922
 151     0.020963277087166
 152     0.010544089313695
 153    -0.045643016497926
 154    0.0070524061170119
 155    0.00035296704226636
 156    -0.073048954235204
 157    0.0085822847007119
 158    0.0063828619900233
 159     -0.10911993933203
 160    0.0089037079766065
 161     0.012890357114121
 162    0.0013942936792739
 163    -0.0033459433884343
 164    0.0004879927404299
 165    -0.0012244794313531
 166    0.0022508243238623
 167    -0.0017190019225948
 168    0.0085852364410163
 169     0.010758314195773
 170     0.004764939367033
 171     -0.04045979145553
 172    -0.025113930044393
 173    0.0061840608462102
 174    -0.066994363598729
 175     -0.03582727043145
 176     0.012774432575228
 177      -0.1011920062277
 178    -0.049639321727061
 179     0.019267552686916
 180    0.0016767784735005
 181    -0.0013902306230812
 182    -0.0005129927862614
 183    0.0021097462991548
 184    -0.0036180827748531
 Sym= A
 Ene=               2
 Spin= Alpha
 Occup=    1.00000
   1    -0.0027962691051226
   2    0.0080184418402414
   3    -0.038895362989812
   4    0.0094533157840152
   5    0.0028145559975081
   6    -0.0095478049244683
   7    -0.010596592925012
   8     0.012092199764097
   9     0.031297397286533
  10     0.033799422318131
  11    -0.036892374832076
  12    -0.023038807202433
  13     0.069107269682485
  14     0.038861899450109
  15    -0.034094551990264
  16     0.042267673762376
  17    -0.070675611197977
  18    -0.049857568688424
  19     0.059013103626394
  20    -0.022069228774267
  21     0.028341861845077
  22    -0.045844766308046
  23    -0.032512730646047
  24     0.039437582336855
  25    -7.6680119272577e-05
  26    -0.0010754373240702
  27    -0.00024664257662005
  28    0.00075471169469035
  29     -0.00222011987882
  30    -0.00094565193483752
  31    -0.00014888326896127
  32    3.2327330543675e-16
  33    9.3094772964812e-17
  34    9.208748423899e-17
  35     0.003711755849393
  36    -0.011901108702171
  37    1.7044917828563e-16
  38    0.00095397401278056
  39    -0.021427062987452
  40    1.7059785710117e-16
  41    1.437784561449e-18
  42    0.00059365284539561
  43    -0.00077292639656812
  44    5.165436620237e-18
  45    -1.332723571635e-18
  46    0.0027962691051226
  47    -0.0080184418402414
  48     0.038895362989812
  49    -0.009453315784015
  50    -0.0028145559975081
  51    -0.0095478049244683
  52    -0.010596592925012
  53    -0.012092199764097
  54     0.031297397286532
  55     0.033799422318131
  56     0.036892374832076
  57    -0.023038807202433
  58     0.069107269682486
  59    -0.038861899450109
  60     0.034094551990264
  61     0.042267673762377
  62    -0.070675611197977
  63     0.049857568688424
  64    -0.059013103626394
  65     0.022069228774267
  66     0.028341861845077
  67    -0.045844766308046
  68     0.032512730646047
  69    -0.039437582336855
  70    7.6680119272578e-05
  71    -0.0010754373240702
  72    -0.00024664257662005
  73    -0.00075471169469035
  74      0.00222011987882
  75    -0.00094565193483752
  76    -0.00014888326896127
  77    0.00084260764867523
  78    -0.0049065209907653
  79    0.0050510912536355
  80    -0.001998850819928
  81    0.0090318979811294
  82    -0.013801516920364
  83    -0.036527196886119
  84     0.015604808524719
  85    -0.023451441660796
  86    -0.060913821983902
  87     0.024930930057362
  88    -0.042767013303903
  89    -0.090472616582747
  90     0.003098255215811
  91    0.00035786083993806
  92    -0.0013450293499318
  93    0.0001711516986868
  94    0.00064894555708511
  95    -0.0096895388103514
  96     0.061527817352913
  97    -0.087104639995353
  98    -0.027489592921002
  99     0.072633696381859
 100    -0.055469104347744
 101    -0.081352987457995
 102      0.12346591839293
 103    -0.093809071310208
 104     -0.13754050013277
 105       0.1736120862518
 106     -0.13777195080888
 107     -0.19517294990902
 108    -0.0060177587766768
 109     0.012108174027786
 110    -0.0087106969573822
 111    -0.0039414650021536
 112    0.0063537500531487
 113    0.0091251265103976
 114    -0.057571388273064
 115     0.076404288467832
 116     0.028564668773369
 117     -0.05055895135868
 118      -0.1027128522562
 119    0.0067282181577771
 120    -0.086214347432233
 121     -0.17224947737738
 122     0.010623186528083
 123     -0.12157157004309
 124     -0.25305242050446
 125     0.010266278032429
 126    -0.0051532404560311
 127    -0.002441051262801
 128    -0.0084984186379168
 129    -0.0086784047204143
 130     0.008447203563153
 131    -0.00084260764867523
 132    0.0049065209907654
 133    -0.0050510912536355
 134     0.001998850819928
 135    0.0090318979811294
 136    -0.013801516920364
 137     0.036527196886119
 138     0.015604808524719
 139    -0.023451441660796
 140     0.060913821983903
 141     0.024930930057362
 142    -0.042767013303903
 143     0.090472616582748
 144    -0.003098255215811
 145    0.00035786083993806
 146    -0.0013450293499318
 147    -0.0001711516986868
 148    -0.00064894555708511
 149    0.0096895388103515
 150    -0.061527817352913
 151     0.087104639995354
 152     0.027489592921002
 153      0.07263369638186
 154    -0.055469104347744
 155     0.081352987457995
 156      0.12346591839293
 157    -0.093809071310209
 158      0.13754050013277
 159       0.1736120862518
 160     -0.13777195080888
 161      0.19517294990902
 162    0.0060177587766768
 163     0.012108174027786
 164    -0.0087106969573823
 165    0.0039414650021536
 166    -0.0063537500531488
 167    -0.0091251265103977
 168     0.057571388273064
 169    -0.076404288467832
 170    -0.028564668773369
 171     -0.05055895135868
 172      -0.1027128522562
 173    -0.006728218157777
 174    -0.086214347432233
 175     -0.17224947737738
 176    -0.010623186528083
 177     -0.12157157004309
 178     -0.25305242050446
 179    -0.010266278032428
 180    0.0051532404560311
 181    -0.002441051262801
 182    -0.0084984186379168
 183    0.0086784047204143
 184    -0.008447203563153
 Sym= A
 Ene=               3
 Spin= Alpha
 Occup=    1.00000
   1    -0.0029650282287577
   2    0.0093414451295001
   3    -0.038434267635318
   4    0.0015939049634697
   5    0.0018320656778745
   6    -0.027677703524485
   7    -0.014735489342989
   8    0.0017369994210074
   9     0.092209225430952
  10     0.045386562285433
  11    -0.0039128445934345
  12     0.024732172460572
  13    -0.041862154460294
  14    -0.069310619396633
  15    0.0085098799011464
  16    -0.044809306394204
  17     0.083151475778813
  18     0.043866265656607
  19    -0.048371468011111
  20    0.0044876861767468
  21    -0.030702539486416
  22     0.054383615917247
  23     0.027881294852776
  24    -0.032373187115121
  25    0.00013113119444285
  26    0.0012594516361086
  27    0.00059226326669593
  28    -0.00026296391286775
  29    0.0021754150702253
  30    0.00022904612054662
  31    -0.00062996821891182
  32      0.12889750843733
  33     0.026730617483071
  34     0.027514102731808
  35    -2.634846709611e-17
  36    2.5278623584502e-17
  37    0.0066560135146084
  38    -1.8237142692423e-17
  39    5.3518290023907e-17
  40     0.016309941922141
  41    -0.00042507424124177
  42    -1.24295713895e-18
  43    9.4723807013359e-19
  44    0.0013968591471959
  45    -0.00088555831272471
  46    -0.0029650282287577
  47    0.0093414451295001
  48    -0.038434267635318
  49    0.0015939049634698
  50    0.0018320656778744
  51     0.027677703524485
  52     0.014735489342989
  53    0.0017369994210075
  54    -0.092209225430952
  55    -0.045386562285433
  56    -0.0039128445934346
  57    -0.024732172460572
  58     0.041862154460293
  59    -0.069310619396633
  60    0.0085098799011463
  61     0.044809306394204
  62    -0.083151475778813
  63     0.043866265656607
  64    -0.048371468011111
  65    0.0044876861767467
  66     0.030702539486416
  67    -0.054383615917247
  68     0.027881294852776
  69    -0.032373187115121
  70    0.00013113119444285
  71    -0.0012594516361085
  72    -0.00059226326669593
  73    -0.00026296391286775
  74    0.0021754150702253
  75    -0.00022904612054662
  76    0.00062996821891182
  77    -0.0052458064681877
  78     0.032117788128225
  79    -0.035731909269176
  80    -0.0078402559111511
  81     0.019051924878472
  82    -0.0080318782146781
  83     0.080508076173222
  84     0.032451128322062
  85    -0.012360829248833
  86      0.13365779602202
  87     0.045028888501367
  88    -0.0079125489529138
  89       0.1935256412033
  90    -0.0072544418804606
  91    -0.0025437397172913
  92    0.0068575467945132
  93    0.0012674141956293
  94    0.00076439266938825
  95     0.011265063000478
  96    -0.072240158875373
  97      0.10855536799621
  98     0.032803020619799
  99    -0.078378103789847
 100     0.058836440497908
 101     0.085605622985016
 102     -0.13453046217044
 103      0.10091313360777
 104      0.14604324966526
 105     -0.18789964440031
 106      0.14301265798768
 107      0.20764635790591
 108     0.005952229972156
 109    -0.013202202726303
 110    0.0099607712801905
 111    0.0037556492160283
 112    -0.0073419476366088
 113    -0.0033571423079284
 114     0.020118292959489
 115    -0.019065217349113
 116    -0.0065761517826056
 117     0.014423725228268
 118     0.069548432756132
 119    -0.0018035311670093
 120     0.023529443507191
 121      0.11395869141779
 122    -0.0024152248083562
 123     0.029928520456781
 124      0.17218191870241
 125    0.0032572102530856
 126    0.0027340594533277
 127    0.00076018961806632
 128    0.0052914842999929
 129    0.0045206500477091
 130    -0.0045575215688132
 131    -0.0052458064681877
 132     0.032117788128225
 133    -0.035731909269176
 134    -0.0078402559111512
 135    -0.019051924878472
 136    0.0080318782146781
 137     0.080508076173222
 138    -0.032451128322062
 139     0.012360829248833
 140      0.13365779602202
 141    -0.045028888501367
 142     0.007912548952914
 143       0.1935256412033
 144    -0.0072544418804606
 145    0.0025437397172913
 146    -0.0068575467945133
 147    0.0012674141956293
 148    0.00076439266938825
 149     0.011265063000478
 150    -0.072240158875373
 151      0.10855536799621
 152     0.032803020619799
 153     0.078378103789847
 154    -0.058836440497908
 155     0.085605622985016
 156      0.13453046217044
 157     -0.10091313360777
 158      0.14604324966526
 159      0.18789964440031
 160     -0.14301265798768
 161      0.20764635790591
 162     0.005952229972156
 163     0.013202202726302
 164    -0.0099607712801905
 165    0.0037556492160283
 166    -0.0073419476366088
 167    -0.0033571423079284
 168     0.020118292959489
 169    -0.019065217349113
 170    -0.0065761517826056
 171    -0.014423725228267
 172    -0.069548432756132
 173    -0.0018035311670091
 174     -0.02352944350719
 175     -0.11395869141779
 176    -0.0024152248083561
 177     -0.02992852045678
 178      -0.1721819187024
 179    0.0032572102530858
 180    0.0027340594533277
 181    -0.00076018961806631
 182    -0.0052914842999928
 183    0.0045206500477091
 184    -0.0045575215688131
 Sym= A
 Ene=               4
 Spin= Alpha
 Occup=    1.00000
   1    -0.0067798122384757
   2     0.020807904783229
   3    -0.089762561726769
   4     0.010353117152444