[Molden Format]
made by pyscf v[2.1.1]
[Atoms] (AU)
Fe   1   26     3.17068844873907     0.00098706064664     0.12237737881307
O   2   8     0.00000000000000     0.00000000000000    -0.89004350580623
Fe   3   26    -3.17068844873907    -0.00098706064664     0.12237737881307
Cl   4   17     3.53383895113107    -2.07485195383062     3.76228752659000
Cl   5   17     5.54152580550813    -1.85590924879884    -2.78672786652360
Cl   6   17     4.48169216485503     3.92976278472880    -0.95330240907949
Cl   7   17    -3.53383895113107     2.07485195383062     3.76228752659000
Cl   8   17    -5.54152580550813     1.85590924879884    -2.78672786652360
Cl   9   17    -4.48169216485503    -3.92976278472880    -0.95330240907949
[GTO]
1 0
 s    6 1.00
          60923.640643  0.0017552243692958
          9147.8893982   0.013449023284001
          2081.3505927   0.066678874640978
          587.55977067    0.23176348548844
           191.0904399    0.46945550248188
          65.732730112     0.3596824938678
 s    3 1.00
          127.25891928   -0.10723431835929
           14.83091301    0.62971616328466
          6.0653307408    0.44472317896179
 s    3 1.00
           10.44994371   -0.21694289195548
          1.7245228003    0.69457867408393
         0.71772177325    0.43298308896347
 s    1 1.00
        0.091449828308                   1
 s    1 1.00
        0.033706691021                   1
 p    5 1.00
          773.43750995  0.0091440529992506
          182.15149714   0.067887577136571
          57.547272758    0.26167978878504
          20.614988935    0.51088040113251
           7.634855789    0.33235475570224
 p    3 1.00
           3.871932799    0.33193859098144
          1.4924724132     0.5553666555499
         0.56061284958    0.23106034201617
 p    1 1.00
              0.134915                   1
 d    4 1.00
          38.968133419   0.033335938558743
          10.800067078    0.17766212505983
          3.6136457999      0.441281781625
          1.2129967888    0.57089200490673
 d    1 1.00
          0.3652439317                   1
 f    1 1.00
                 1.598                   1

2 0
 s    5 1.00
          2266.1767785  -0.0053893503921743
          340.87010191   -0.04023472138896
          77.363135167   -0.18008184205526
           21.47964494   -0.46828857657651
          6.6589433124   -0.44692617160187
 s    1 1.00
         0.80975975668                   1
 s    1 1.00
         0.25530772234                   1
 p    3 1.00
          17.721504317   0.062630248763161
           3.863550544    0.33331138482352
          1.0480920883    0.74148638308122
 p    1 1.00
         0.27641544411                   1
 d    1 1.00
                   1.2                   1

3 0
 s    6 1.00
          60923.640643  0.0017552243692958
          9147.8893982   0.013449023284001
          2081.3505927   0.066678874640978
          587.55977067    0.23176348548844
           191.0904399    0.46945550248188
          65.732730112     0.3596824938678
 s    3 1.00
          127.25891928   -0.10723431835929
           14.83091301    0.62971616328466
          6.0653307408    0.44472317896179
 s    3 1.00
           10.44994371   -0.21694289195548
          1.7245228003    0.69457867408393
         0.71772177325    0.43298308896347
 s    1 1.00
        0.091449828308                   1
 s    1 1.00
        0.033706691021                   1
 p    5 1.00
          773.43750995  0.0091440529992506
          182.15149714   0.067887577136571
          57.547272758    0.26167978878504
          20.614988935    0.51088040113251
           7.634855789    0.33235475570224
 p    3 1.00
           3.871932799    0.33193859098144
          1.4924724132     0.5553666555499
         0.56061284958    0.23106034201617
 p    1 1.00
              0.134915                   1
 d    4 1.00
          38.968133419   0.033335938558743
          10.800067078    0.17766212505983
          3.6136457999      0.441281781625
          1.2129967888    0.57089200490673
 d    1 1.00
          0.3652439317                   1
 f    1 1.00
                 1.598                   1

4 0
 s    5 1.00
          10449.827566  0.0054265953789407
          1571.7365221   0.040626378128836
          357.12065523    0.18359747852877
          100.25185935    0.47438948768198
          30.812727554    0.43735181104122
 s    3 1.00
          51.923789434  -0.092754154848099
          5.7045760975    0.56380825544207
          2.3508376809    0.50367044629712
 s    1 1.00
         0.44605124672                   1
 s    1 1.00
          0.1684885619                   1
 p    5 1.00
          307.66790569  -0.0088797025588865
          72.102015515  -0.064284071721237
          22.532680262   -0.24288739736006
          7.8991765444   -0.48340836369878
          2.8767268321   -0.38952563875509
 p    1 1.00
         0.77459363955                   1
 p    1 1.00
         0.21037699698                   1
 d    1 1.00
                  0.65                   1

5 0
 s    5 1.00
          10449.827566  0.0054265953789407
          1571.7365221   0.040626378128836
          357.12065523    0.18359747852877
          100.25185935    0.47438948768198
          30.812727554    0.43735181104122
 s    3 1.00
          51.923789434  -0.092754154848099
          5.7045760975    0.56380825544207
          2.3508376809    0.50367044629712
 s    1 1.00
         0.44605124672                   1
 s    1 1.00
          0.1684885619                   1
 p    5 1.00
          307.66790569  -0.0088797025588865
          72.102015515  -0.064284071721237
          22.532680262   -0.24288739736006
          7.8991765444   -0.48340836369878
          2.8767268321   -0.38952563875509
 p    1 1.00
         0.77459363955                   1
 p    1 1.00
         0.21037699698                   1
 d    1 1.00
                  0.65                   1

6 0
 s    5 1.00
          10449.827566  0.0054265953789407
          1571.7365221   0.040626378128836
          357.12065523    0.18359747852877
          100.25185935    0.47438948768198
          30.812727554    0.43735181104122
 s    3 1.00
          51.923789434  -0.092754154848099
          5.7045760975    0.56380825544207
          2.3508376809    0.50367044629712
 s    1 1.00
         0.44605124672                   1
 s    1 1.00
          0.1684885619                   1
 p    5 1.00
          307.66790569  -0.0088797025588865
          72.102015515  -0.064284071721237
          22.532680262   -0.24288739736006
          7.8991765444   -0.48340836369878
          2.8767268321   -0.38952563875509
 p    1 1.00
         0.77459363955                   1
 p    1 1.00
         0.21037699698                   1
 d    1 1.00
                  0.65                   1

7 0
 s    5 1.00
          10449.827566  0.0054265953789407
          1571.7365221   0.040626378128836
          357.12065523    0.18359747852877
          100.25185935    0.47438948768198
          30.812727554    0.43735181104122
 s    3 1.00
          51.923789434  -0.092754154848099
          5.7045760975    0.56380825544207
          2.3508376809    0.50367044629712
 s    1 1.00
         0.44605124672                   1
 s    1 1.00
          0.1684885619                   1
 p    5 1.00
          307.66790569  -0.0088797025588865
          72.102015515  -0.064284071721237
          22.532680262   -0.24288739736006
          7.8991765444   -0.48340836369878
          2.8767268321   -0.38952563875509
 p    1 1.00
         0.77459363955                   1
 p    1 1.00
         0.21037699698                   1
 d    1 1.00
                  0.65                   1

8 0
 s    5 1.00
          10449.827566  0.0054265953789407
          1571.7365221   0.040626378128836
          357.12065523    0.18359747852877
          100.25185935    0.47438948768198
          30.812727554    0.43735181104122
 s    3 1.00
          51.923789434  -0.092754154848099
          5.7045760975    0.56380825544207
          2.3508376809    0.50367044629712
 s    1 1.00
         0.44605124672                   1
 s    1 1.00
          0.1684885619                   1
 p    5 1.00
          307.66790569  -0.0088797025588865
          72.102015515  -0.064284071721237
          22.532680262   -0.24288739736006
          7.8991765444   -0.48340836369878
          2.8767268321   -0.38952563875509
 p    1 1.00
         0.77459363955                   1
 p    1 1.00
         0.21037699698                   1
 d    1 1.00
                  0.65                   1

9 0
 s    5 1.00
          10449.827566  0.0054265953789407
          1571.7365221   0.040626378128836
          357.12065523    0.18359747852877
          100.25185935    0.47438948768198
          30.812727554    0.43735181104122
 s    3 1.00
          51.923789434  -0.092754154848099
          5.7045760975    0.56380825544207
          2.3508376809    0.50367044629712
 s    1 1.00
         0.44605124672                   1
 s    1 1.00
          0.1684885619                   1
 p    5 1.00
          307.66790569  -0.0088797025588865
          72.102015515  -0.064284071721237
          22.532680262   -0.24288739736006
          7.8991765444   -0.48340836369878
          2.8767268321   -0.38952563875509
 p    1 1.00
         0.77459363955                   1
 p    1 1.00
         0.21037699698                   1
 d    1 1.00
                  0.65                   1

[5d]
[7f]
[9g]

[MO]
 Sym= A
 Ene=               0
 Spin= Alpha
 Occup=    1.00000
   1    -0.0023469351534782
   2    0.0081930265665388
   3    -0.026099912943647
   4    -0.030922054041876
   5     0.017467185009891
   6    -0.0096903782594758
   7    6.7040689649471e-05
   8    0.0030696912249006
   9     0.028733604024315
  10    -0.00020915163072373
  11    -0.010177066051635
  12    -0.0050544271487418
  13    -0.00010719677355552
  14    0.0012210153772916
  15    6.0342697419761e-05
  16    -0.017468609718613
  17    0.0029600889667694
  18    -0.0083652889766363
  19    -0.00075882918750577
  20    -0.0010025875158189
  21    -0.0072564944935583
  22    0.0022966071467825
  23    -0.0011594218872995
  24    -0.00042567350449401
  25    -0.00068423339507063
  26    -0.00010049796854606
  27    0.00023065357348078
  28    0.00085342349382173
  29    1.555947140472e-05
  30    0.00070644321635007
  31    8.8351846244856e-05
  32     -0.38022599882812
  33    -0.052037951968228
  34    -0.043267738581371
  35    -0.065932247653565
  36    0.00093807819389852
  37      0.04309632060941
  38    -0.075095386909666
  39    0.0021039473621522
  40      0.03966847107655
  41    0.0011005865068766
  42    -0.0030119539144542
  43    7.9871455547187e-05
  44    -0.00012127744094031
  45    -1.5202284857464e-05
  46    0.0068714494532798
  47    -0.0091759021147251
  48      0.13728007276717
  49      0.24149931349435
  50     -0.06973479324592
  51     0.084153410447297
  52     0.001709683395571
  53    -0.029807913546354
  54     -0.27720750649541
  55    -0.0053005078895986
  56     0.097412678518764
  57    -0.074984402831341
  58    0.0014915287769049
  59     0.033164501764103
  60    0.0034650413009053
  61     0.015885465101891
  62     0.013874748889904
  63    -0.0039380236146496
  64    -0.0022942855646837
  65    0.0076771854271617
  66     0.019528475333769
  67     0.010710002651891
  68    -0.014562343846768
  69    -0.0015036199585689
  70    0.0015526105295863
  71    -0.0012165795376243
  72    0.0025463855960036
  73    -0.00069507452017536
  74    0.00049733117623222
  75    0.0016675554124357
  76    0.00088608745799626
  77    -0.00074223136445897
  78    0.0050388467650418
  79    -0.011169323429381
  80    -0.0019658565108756
  81    0.00073923631419915
  82    -0.0041411411891865
  83    0.0078247722991024
  84    0.00095800295911845
  85    -0.0077221231652524
  86     0.014554624800409
  87    -0.0010021726076784
  88    -0.010281283291021
  89     0.019292940312693
  90    -0.0013510986551038
  91    2.7895409528692e-05
  92    0.0014291510653457
  93    0.00060886232334351
  94    -9.3678061111421e-05
  95    -0.00075029885706323
  96    0.0051814339847371
  97    -0.010040008459688
  98    -0.0084059597763312
  99     0.003116906259198
 100    -0.0011879530300088
 101    -0.0032220411330809
 102    0.0058996138086481
 103    -0.0027315783675267
 104    -0.0065821580404073
 105    0.0088609074934497
 106    -0.0034246952345335
 107    -0.0091379447266464
 108    -3.9653144278431e-05
 109    0.0012571938687854
 110    -0.0007291572939243
 111    -0.00067137225347473
 112    0.00096589107749844
 113    -0.00099194870980195
 114    0.0066877465924497
 115    -0.012646209700323
 116    -0.0068176497500044
 117      0.00456257838821
 118    0.0059235466070577
 119    -0.0022523455963303
 120    0.0080565013972306
 121      0.01140231078901
 122    -0.0041949799040999
 123     0.010666141014309
 124     0.015475405102682
 125    -0.0059981536219247
 126    0.00081512133512917
 127    0.0001637115694393
 128    0.00066278634879252
 129    0.0010170294005265
 130    -0.0013764358233805
 131     0.014079573148578
 132    -0.098581729466162
 133      0.21084738766556
 134       0.1163410118447
 135    -0.013276960790859
 136    -0.034010349451954
 137     -0.04772419051867
 138    -0.020248516947744
 139    -0.072924540720145
 140     -0.10803367432309
 141     -0.02844319155742
 142    -0.096262615025265
 143      -0.1380039652636
 144     0.010123027394506
 145    -0.00010038223058095
 146     0.013060684944975
 147    -0.0040757437492876
 148    -9.9616247561203e-05
 149     0.013572585329806
 150    -0.095481791676327
 151      0.20746323973932
 152      0.11903804591617
 153     0.014563842885164
 154    -0.022596004596207
 155     0.047377027327209
 156     0.041836991168575
 157     -0.05262874034481
 158      0.10191222771684
 159      0.05513794829889
 160    -0.065290485565467
 161      0.13556438090466
 162    0.0060757474971486
 163     0.010802785618749
 164    -0.0096874084223954
 165    0.00032347982815129
 166    -0.0062362729511137
 167     0.012450553414321
 168    -0.087743616187194
 169      0.19126576063502
 170      0.11227208820026
 171    -0.0038909843675083
 172     0.046777889190503
 173     0.026133841240797
 174    0.0018531355819574
 175      0.10673298736983
 176     0.051036133245378
 177      0.00110914678451
 178      0.13886240844458
 179     0.074649010123691
 180    -0.0049087427136461
 181    0.0018238879848916
 182    0.0077509974656667
 183    -0.010682607453726
 184    0.0048661744759046
 Sym= A
 Ene=               1
 Spin= Alpha
 Occup=    1.00000
   1    -0.0005257471828519
   2    0.0015699611397398
   3    -0.0070002761516764
   4    0.0074469133637518
   5    -0.0013408820059545
   6    -0.0024284752523026
   7    0.00052538474187896
   8    0.00083763859105771
   9    0.0077508893046558
  10    -0.0016720505223085
  11    -0.0026746112166346
  12    -0.0067288818571168
  13    0.0030768697790575
  14    0.0085391237510775
  15    -0.001275247623725
  16    -0.00071361451318032
  17    -7.125696177403e-06
  18    0.0019590585414222
  19    -0.00060759095846118
  20    -0.0014003379904643
  21    -0.0023066272816302
  22    -0.00015476322268194
  23    0.00081310669889002
  24    -0.00085977518250521
  25    -4.949529678204e-05
  26    0.00039237230054927
  27    1.7782681149607e-05
  28    9.1369602086461e-05
  29    6.2287381418609e-05
  30    -0.00028375448815261
  31    0.00012035643886894
  32    -0.0018812243920037
  33    -0.0050967824898948
  34    -0.0025537362739775
  35    0.0086483864573906
  36     0.014399737334511
  37     0.049584912401232
  38     0.009457493606868
  39      0.01402145895379
  40     0.048219577465609
  41    0.00020486316905504
  42    0.0012000329439874
  43    -0.0001974656807186
  44    0.00011826104500637
  45    0.00019572921819592
  46    -0.0012624744301202
  47    0.0037551393587937
  48    -0.016795124211707
  49     0.031469241005738
  50    -0.013929159754852
  51    0.0006780198981932
  52    0.0014776969243771
  53    0.0048082400533785
  54    -0.0021473194318877
  55    -0.0046677566308214
  56    -0.014936499479726
  57    0.0023346540059242
  58    0.0057445578952537
  59     0.021809710771225
  60     -0.20129517106671
  61     -0.47894349029445
  62      -0.4827303846882
  63     -0.43357080796763
  64     -0.28034089306666
  65    -0.054083637159327
  66        -0.12836789478
  67     -0.13067659564534
  68     -0.11765350448459
  69    -0.075327869636382
  70    -0.0010658442475069
  71    -0.0010670254540588
  72    -0.00098054201325057
  73    0.00025921590584611
  74    0.00029218080058172
  75    0.00088712756817926
  76    0.00057294546750096
  77    -0.00022416267764504
  78    0.0015135706917002
  79    -0.0028146549671714
  80    -0.0014910300546556
  81    0.0015525845512033
  82    -0.00083853258399222
  83    0.00078408711078537
  84    0.0028636664714476
  85    -0.0014347027400512
  86    0.0013731405350174
  87    0.0037564121711722
  88    -0.003280189888992
  89    0.0030828535321995
  90    -0.00010629936762634
  91    0.00031181266244697
  92    -5.1473369940326e-05
  93    0.00017675522226456
  94    -0.00024837522436143
  95    7.7414905229435e-05
  96    -0.0005091706820338
  97    0.00037031699472201
  98    0.0032623783308405
  99    -0.0010522168374074
 100    -7.6967851531131e-05
 101    -0.00069412193201323
 102    -0.0018311212911135
 103    -0.00018378405390801
 104    -0.0012500879606882
 105    -0.0035837885988305
 106    0.00080130671440205
 107    -0.00049861149640141
 108    4.539089078238e-05
 109    -0.00014082319635267
 110    5.5476550257549e-05
 111    -9.5034400006642e-05
 112    -3.0585928588241e-05
 113    -0.000100703855873
 114    0.00068137262240733
 115    -0.0014329182470795
 116    0.00028895002827058
 117    0.00075406139496959
 118    0.00040693526168207
 119    -0.00078926538832516
 120    0.0013704755683745
 121    0.00074411085746116
 122    -0.0013015297540412
 123    0.0019864325341893
 124    0.00093053526506804
 125    -0.0026917331389216
 126    -0.00010614559632296
 127    -0.00013540675860169
 128    -1.2870041136893e-05
 129    0.00010585473386381
 130    0.00017965845961237
 131    0.0013678035584267
 132    -0.0089692200279321
 133     0.011347215919903
 134    0.0065346706052616
 135     0.018071071002525
 136    -0.0080035130446634
 137     -0.01000445576135
 138      0.03064215934665
 139    -0.013808768520078
 140     -0.01743257701039
 141     0.050506291704108
 142    -0.022134070917495
 143    -0.027766976736328
 144    0.0004851876550853
 145    0.0019647057151721
 146    -0.00045177383655035
 147    -0.00086838258957849
 148    0.0012409574592879
 149    -8.187441797409e-05
 150    0.00055759288552308
 151    -0.0022451853854171
 152    0.0045303465858884
 153    -0.011791107071821
 154    -0.025701019821945
 155    -0.0080044099904633
 156     -0.01990313394411
 157    -0.043317402259201
 158    -0.013350245683188
 159    -0.031869058145107
 160    -0.073903377752356
 161    -0.022203306601209
 162    0.00070917396954022
 163    0.0013556838870252
 164     0.001657109953105
 165    0.0020452239765583
 166    0.0012718934556321
 167    -0.00020085753321245
 168    0.0013304927193276
 169    -0.0030810232176961
 170    0.0026417318874016
 171    -0.013244289074952
 172    0.0077782359107648
 173     -0.02192287277898
 174    -0.022201994792747
 175     0.013102657677132
 176    -0.036790145236996
 177    -0.037137998769846
 178     0.023095633897191
 179    -0.062105478462261
 180    0.00098988202211802
 181    0.0012773991190263
 182    0.0015530998885768
 183    0.0016691708624322
 184    0.00079496551670605
 Sym= A
 Ene=               2
 Spin= Alpha
 Occup=    1.00000
   1    -0.00051488386678993
   2      0.00152508519563
   3    -0.006909298155033
   4    0.0083677278956849
   5    -0.0020154024739506
   6    -0.0021767133921727
   7    -0.002225562841824
   8    0.00050574154036376
   9    0.0069497095631008
  10    0.0070862501130522
  11    -0.0016208243378249
  12    -0.0055215115667662
  13    -0.014249605127664
  14     0.006923098931188
  15    -0.0013746745541518
  16    -0.00013052209251893
  17    0.00042130816661582
  18    0.0014505974652541
  19    0.0021720378455814
  20    -0.0012381715548117
  21    -0.0019759921292501
  22    0.0012196637726849
  23    0.00051704361605896
  24    0.0049898545264954
  25    -2.0144247768223e-05
  26    0.00033436569514346
  27    0.00014483022917013
  28    0.00011147968088259
  29    -0.00034979232149777
  30    -0.00027010086598334
  31    -0.00066390636762669
  32    -0.0022475313026202
  33    -0.0058798220546779
  34    -0.0028871779012486
  35    0.0092134906474396
  36    -0.076074828114262
  37     0.042438557353673
  38     0.010232396908201
  39    -0.073251892293627
  40     0.041430301992401
  41    0.00063102110873947
  42    0.0012348060622071
  43     -0.00113898300844
  44    0.00049702379072443
  45    -0.0016929106717183
  46    -0.00083342290456642
  47    0.0024797521680675
  48     -0.01107923498541
  49     0.021070785978408
  50    -0.0075544874454379
  51    4.4083534920517e-05
  52    -0.0065214085801406
  53    0.0033023055725048
  54    -0.00011512250578328
  55     0.020054897095384
  56      -0.0100881769559
  57    -0.00092727162542988
  58    -0.028261432745252
  59     0.015721005170304
  60      0.52478932055665
  61     -0.15477636684337
  62     -0.46394355936508
  63      0.13091969094679
  64      0.48633748051768
  65       0.1409816783922
  66    -0.040740914575334
  67     -0.12459804480269
  68     0.034781653379648
  69      0.12900282189578
  70    0.0005936346818103
  71    -0.0013496030883445
  72    -0.00055241028456497
  73    0.00067544106556403
  74    0.0017073268108689
  75    -7.891943558293e-05
  76    -0.0015208093559274
  77    -0.00029241024822826
  78    0.0019351035461758
  79    -0.0025939930889064
  80    -0.0053213216343701
  81    0.0024305960511341
  82    3.7291192546808e-05
  83     0.001950161808995
  84    0.0042739426971404
  85    0.00011350757764647
  86    0.0033027775045579
  87    0.0065491834916974
  88    -0.0011618850822334
  89    0.0080870273776065
  90    -3.6912561723991e-05
  91    0.00054286618864367
  92    6.1547700547834e-05
  93    0.00029642306679826
  94    -9.0980720904494e-05
  95    -9.8895509075068e-05
  96    0.00066368637964099
  97    -0.0012810804692742
  98    -9.7312568305028e-05
  99    0.00089671669533162
 100    0.00045666199862855
 101    -0.00078704217930865
 102    0.0016063835670795
 103    0.00064709637628322
 104    -0.0012643295539728
 105    0.0024753977314473
 106    0.0023337956455054
 107    -0.0028358573179774
 108    -0.00017694922681849
 109    -0.00012587917807761
 110    2.1442540771295e-05
 111    0.00012321720365645
 112    2.4108999593435e-05
 113    0.00027012554007576
 114    -0.0017976788199937
 115    0.0026167625596178
 116    0.0045238249331786
 117    -0.0030061173154243
 118    -0.00081786899302273
 119    -0.00082798201335846
 120    -0.0054029751402686
 121    -0.0013606466552865
 122    -0.0014994880832206
 123    -0.0077189260507292
 124    -0.0046329498627596
 125    -0.0013589826220004
 126    0.00012663964075385
 127    -0.00021916989331074
 128    -0.0001912191795295
 129    -0.00053504387156505
 130    -0.00021072647962878
 131    7.9002532376797e-05
 132    -0.00051251482281736
 133    0.00010578277572243
 134    0.0010166242598441
 135    -0.0031730810759491
 136     0.022896936393133
 137    -0.013944421308001
 138    -0.005331767252282
 139      0.03861560558555
 140    -0.023631832696942
 141    -0.0090283694295012
 142      0.06552289252572
 143    -0.039931908714187
 144    -0.0025944406609894
 145    -0.00043611591162028
 146    0.0013270707432299
 147    -0.0014283596301211
 148    -0.00011700361195757
 149    -0.00042605623353029
 150     0.002845342454862
 151     -0.00533270505865
 152    0.0036238570593355
 153    -0.016228692977725
 154    0.0098706677742719
 155     0.013859322542896
 156    -0.027545719365019
 157     0.016574548037535
 158     0.023278593684443
 159    -0.043782677854792
 160     0.028271221448056
 161     0.040372769031645
 162    -0.0023956318784881
 163    2.5150475479412e-05
 164    -9.5047285365781e-06
 165    0.00086353106680378
 166    -0.0012544579698338
 167     0.001087589283494
 168    -0.0071239806215316
 169    0.0093740329454963
 170    0.0032731515288309
 171     0.015793550308324
 172    0.0090163879674737
 173    -0.007806069788068
 174     0.026650421605796
 175     0.015469876640061
 176    -0.013070845012373
 177     0.044003681935858
 178      0.02486826122527
 179    -0.022775825824992
 180    0.00094656039863275
 181    -0.00021193455898339
 182    0.0011504978487342
 183    -0.00078569434401786
 184    -0.0011652291483161
 Sym= A
 Ene=               3
 Spin= Alpha
 Occup=    1.00000
   1    -0.00099724033825036
   2       0.0029515374082
   3     -0.01340058559706
   4     0.014466105710845
   5    -0.0046655903894558
   6    -0.0043688509607981
   7    0.0025493865368794
   8    0.0010423946006422
   9     0.014013367405039
  10    -0.008115105365066
  11    -0.0033440834419938
  12    -0.013263301057885
  13     0.015551065886139
  14     0.013740099813669
  15    -0.0018787849519397
  16    -7.8200152673475e-05
  17    -0.0005036259913877
  18    0.0034024829482204
  19    -0.0022532445933293
  20    -0.0021828916380554
  21    -0.0033959813417411
  22    -0.0016094055784975
  23    0.0020288138457025
  24    -0.0052258597161337
  25    -1.6813314931518e-05
  26    0.00060519430597033
  27    -6.3329954541644e-05
  28    1.2598630868691e-05
  29    0.00037244518642942
  30    -0.00049413655516994
  31    0.00070224170066928
  32    -0.0049522555905717
  33    -0.012110735836753
  34    -0.0094532742020158
  35     0.024701384690702
  36      0.08057429579864
  37     0.072928725850698
  38     0.027708648065122
  39     0.078729708553068
  40     0.070917844386654
  41    0.0007250445891139
  42    0.0020999571291867
  43    0.0011412673295667
  44     0.001112800053235
  45    0.0018368762945101
  46    0.00060853358390935
  47    -0.0018142423864916
  48    0.0080868826507104
  49    -0.010043919555884
  50    -0.001974241668894
  51    -0.0023363887630129
  52    -0.0044964614847132
  53    -0.0042158089320854
  54    0.0072438264265353
  55     0.014206161262573
  56     0.013410042414195
  57    -0.0063492231499672
  58    -0.0073195300721877
  59    -0.0058593368129674
  60       0.5557337315654
  61     -0.37269620980412
  62      0.30124322203497
  63      0.11361236064075
  64     -0.46174646384775
  65      0.14551693864788
  66    -0.096016565855466
  67     0.078683804453425
  68     0.031178644811385
  69     -0.11884562694976
  70    0.0001854404287491
  71    -0.0018424290097896
  72    -5.7470488290705e-05
  73    0.0015978291813465
  74    -0.0013404472543304
  75    0.0002227891826764
  76    0.0018834257841882
  77    -0.00017049919607445
  78    0.0011401136925148
  79    -0.0017250451043493
  80    -0.0024248573020083
  81    0.00042042230321047
  82    -0.0015521388337015
  83    0.00049730744062707
  84    0.00072036308549568
  85    -0.002457155549778
  86    0.00090432183091598
  87     0.002035212062896
  88    -0.0065318272294745
  89    0.0020248183160928
  90    -4.3134592700245e-05
  91    0.00031011178173026
  92    -0.00012781014117363
  93    5.3133615158907e-05
  94    -0.00031408146525276
  95    0.00018101868868919
  96    -0.0011886126104159
  97    0.00091503143900734
  98     0.007215114831216
  99    -0.0025471171367157
 100    -0.00054190482385623
 101    -0.00090445372231216
 102    -0.0044513097677089
 103    -0.00099375745445264
 104    -0.0017626264133587
 105    -0.0083261905239539
 106    0.00016375101728628
 107    0.0010737438329057
 108    0.00015525851910656
 109    -0.00028851713292087
 110    0.00013359621999417
 111    -0.0001891201293966
 112    -0.00016096990902067
 113    -0.00040050709717524
 114    0.0026828483225578
 115    -0.0046674357854874
 116    -0.0029472414169053
 117    0.0033146510060272
 118     0.001538244292614
 119    -0.0009905197670329
 120    0.0058706756883224
 121    0.0027425884692057
 122    -0.0014937002482373
 123    0.0094797434439817
 124    0.0053205185133954
 125    -0.0046150138687647
 126    -0.00038494983995768
 127    -0.00010768424795521
 128    0.00010945553932266
 129    0.00050855186136767
 130    0.00063950513757541
 131    -0.0036842559790976
 132     0.024146621756342
 133    -0.030150272624178
 134    -0.030433161737695
 135     0.010490711919203
 136     0.027802840103725
 137     0.029951513713131
 138     0.017497772633744
 139     0.047315335886984
 140     0.051387892732113
 141     0.029785447533969
 142     0.083035102576437
 143     0.091863781408044
 144    -0.0011947047335994
 145    0.0017922832850757
 146    -4.8774475420454e-05
 147    1.0418917768694e-05
 148    0.00041264209441073
 149    0.00049070854167446
 150    -0.0031845107765839
 151    0.0034601315521998
 152    0.0058604233519255
 153    0.00068600737661712
 154    0.0051535525232073
 155     0.011277395272621
 156    0.0012071274792861
 157    0.0089057773395985
 158     0.019222276808964
 159    0.0027498137925144
 160      0.01326349774545
 161     0.032102202746109
 162    -0.00081715248762177
 163    -0.00044144450007902
 164    -0.00034345162139559
 165    -0.00038528308250422
 166    -0.0015494618898936
 167    0.0028928494300765
 168    -0.018835372162988
 169     0.022654912679823
 170     0.025959841714057
 171    -0.00049587613977975
 172     0.029140864562449
 173     0.021810550069308
 174    -0.00057243606657511
 175     0.049168087172431
 176     0.036474007186002
 177    -2.947046907502e-05
 178     0.088167415333485
 179     0.063881074225753
 180    -0.00070082708068492
 181    -0.00026002598147681
 182    -0.00014760545359415
 183    -0.0011235027322912