[Molden Format]
made by pyscf v[2.1.1]
[Atoms] (AU)
Fe   1   26     3.17068844873907     0.00098706064664     0.12237737881307
O   2   8     0.00000000000000     0.00000000000000    -0.89004350580623
Fe   3   26    -3.17068844873907    -0.00098706064664     0.12237737881307
Cl   4   17     3.53383895113107    -2.07485195383062     3.76228752659000
Cl   5   17     5.54152580550813    -1.85590924879884    -2.78672786652360
Cl   6   17     4.48169216485503     3.92976278472880    -0.95330240907949
Cl   7   17    -3.53383895113107     2.07485195383062     3.76228752659000
Cl   8   17    -5.54152580550813     1.85590924879884    -2.78672786652360
Cl   9   17    -4.48169216485503    -3.92976278472880    -0.95330240907949
[GTO]
1 0
 s    6 1.00
          60923.640643  0.0017552243692958
          9147.8893982   0.013449023284001
          2081.3505927   0.066678874640978
          587.55977067    0.23176348548844
           191.0904399    0.46945550248188
          65.732730112     0.3596824938678
 s    3 1.00
          127.25891928   -0.10723431835929
           14.83091301    0.62971616328466
          6.0653307408    0.44472317896179
 s    3 1.00
           10.44994371   -0.21694289195548
          1.7245228003    0.69457867408393
         0.71772177325    0.43298308896347
 s    1 1.00
        0.091449828308                   1
 s    1 1.00
        0.033706691021                   1
 p    5 1.00
          773.43750995  0.0091440529992506
          182.15149714   0.067887577136571
          57.547272758    0.26167978878504
          20.614988935    0.51088040113251
           7.634855789    0.33235475570224
 p    3 1.00
           3.871932799    0.33193859098144
          1.4924724132     0.5553666555499
         0.56061284958    0.23106034201617
 p    1 1.00
              0.134915                   1
 d    4 1.00
          38.968133419   0.033335938558743
          10.800067078    0.17766212505983
          3.6136457999      0.441281781625
          1.2129967888    0.57089200490673
 d    1 1.00
          0.3652439317                   1
 f    1 1.00
                 1.598                   1

2 0
 s    5 1.00
          2266.1767785  -0.0053893503921743
          340.87010191   -0.04023472138896
          77.363135167   -0.18008184205526
           21.47964494   -0.46828857657651
          6.6589433124   -0.44692617160187
 s    1 1.00
         0.80975975668                   1
 s    1 1.00
         0.25530772234                   1
 p    3 1.00
          17.721504317   0.062630248763161
           3.863550544    0.33331138482352
          1.0480920883    0.74148638308122
 p    1 1.00
         0.27641544411                   1
 d    1 1.00
                   1.2                   1

3 0
 s    6 1.00
          60923.640643  0.0017552243692958
          9147.8893982   0.013449023284001
          2081.3505927   0.066678874640978
          587.55977067    0.23176348548844
           191.0904399    0.46945550248188
          65.732730112     0.3596824938678
 s    3 1.00
          127.25891928   -0.10723431835929
           14.83091301    0.62971616328466
          6.0653307408    0.44472317896179
 s    3 1.00
           10.44994371   -0.21694289195548
          1.7245228003    0.69457867408393
         0.71772177325    0.43298308896347
 s    1 1.00
        0.091449828308                   1
 s    1 1.00
        0.033706691021                   1
 p    5 1.00
          773.43750995  0.0091440529992506
          182.15149714   0.067887577136571
          57.547272758    0.26167978878504
          20.614988935    0.51088040113251
           7.634855789    0.33235475570224
 p    3 1.00
           3.871932799    0.33193859098144
          1.4924724132     0.5553666555499
         0.56061284958    0.23106034201617
 p    1 1.00
              0.134915                   1
 d    4 1.00
          38.968133419   0.033335938558743
          10.800067078    0.17766212505983
          3.6136457999      0.441281781625
          1.2129967888    0.57089200490673
 d    1 1.00
          0.3652439317                   1
 f    1 1.00
                 1.598                   1

4 0
 s    5 1.00
          10449.827566  0.0054265953789407
          1571.7365221   0.040626378128836
          357.12065523    0.18359747852877
          100.25185935    0.47438948768198
          30.812727554    0.43735181104122
 s    3 1.00
          51.923789434  -0.092754154848099
          5.7045760975    0.56380825544207
          2.3508376809    0.50367044629712
 s    1 1.00
         0.44605124672                   1
 s    1 1.00
          0.1684885619                   1
 p    5 1.00
          307.66790569  -0.0088797025588865
          72.102015515  -0.064284071721237
          22.532680262   -0.24288739736006
          7.8991765444   -0.48340836369878
          2.8767268321   -0.38952563875509
 p    1 1.00
         0.77459363955                   1
 p    1 1.00
         0.21037699698                   1
 d    1 1.00
                  0.65                   1

5 0
 s    5 1.00
          10449.827566  0.0054265953789407
          1571.7365221   0.040626378128836
          357.12065523    0.18359747852877
          100.25185935    0.47438948768198
          30.812727554    0.43735181104122
 s    3 1.00
          51.923789434  -0.092754154848099
          5.7045760975    0.56380825544207
          2.3508376809    0.50367044629712
 s    1 1.00
         0.44605124672                   1
 s    1 1.00
          0.1684885619                   1
 p    5 1.00
          307.66790569  -0.0088797025588865
          72.102015515  -0.064284071721237
          22.532680262   -0.24288739736006
          7.8991765444   -0.48340836369878
          2.8767268321   -0.38952563875509
 p    1 1.00
         0.77459363955                   1
 p    1 1.00
         0.21037699698                   1
 d    1 1.00
                  0.65                   1

6 0
 s    5 1.00
          10449.827566  0.0054265953789407
          1571.7365221   0.040626378128836
          357.12065523    0.18359747852877
          100.25185935    0.47438948768198
          30.812727554    0.43735181104122
 s    3 1.00
          51.923789434  -0.092754154848099
          5.7045760975    0.56380825544207
          2.3508376809    0.50367044629712
 s    1 1.00
         0.44605124672                   1
 s    1 1.00
          0.1684885619                   1
 p    5 1.00
          307.66790569  -0.0088797025588865
          72.102015515  -0.064284071721237
          22.532680262   -0.24288739736006
          7.8991765444   -0.48340836369878
          2.8767268321   -0.38952563875509
 p    1 1.00
         0.77459363955                   1
 p    1 1.00
         0.21037699698                   1
 d    1 1.00
                  0.65                   1

7 0
 s    5 1.00
          10449.827566  0.0054265953789407
          1571.7365221   0.040626378128836
          357.12065523    0.18359747852877
          100.25185935    0.47438948768198
          30.812727554    0.43735181104122
 s    3 1.00
          51.923789434  -0.092754154848099
          5.7045760975    0.56380825544207
          2.3508376809    0.50367044629712
 s    1 1.00
         0.44605124672                   1
 s    1 1.00
          0.1684885619                   1
 p    5 1.00
          307.66790569  -0.0088797025588865
          72.102015515  -0.064284071721237
          22.532680262   -0.24288739736006
          7.8991765444   -0.48340836369878
          2.8767268321   -0.38952563875509
 p    1 1.00
         0.77459363955                   1
 p    1 1.00
         0.21037699698                   1
 d    1 1.00
                  0.65                   1

8 0
 s    5 1.00
          10449.827566  0.0054265953789407
          1571.7365221   0.040626378128836
          357.12065523    0.18359747852877
          100.25185935    0.47438948768198
          30.812727554    0.43735181104122
 s    3 1.00
          51.923789434  -0.092754154848099
          5.7045760975    0.56380825544207
          2.3508376809    0.50367044629712
 s    1 1.00
         0.44605124672                   1
 s    1 1.00
          0.1684885619                   1
 p    5 1.00
          307.66790569  -0.0088797025588865
          72.102015515  -0.064284071721237
          22.532680262   -0.24288739736006
          7.8991765444   -0.48340836369878
          2.8767268321   -0.38952563875509
 p    1 1.00
         0.77459363955                   1
 p    1 1.00
         0.21037699698                   1
 d    1 1.00
                  0.65                   1

9 0
 s    5 1.00
          10449.827566  0.0054265953789407
          1571.7365221   0.040626378128836
          357.12065523    0.18359747852877
          100.25185935    0.47438948768198
          30.812727554    0.43735181104122
 s    3 1.00
          51.923789434  -0.092754154848099
          5.7045760975    0.56380825544207
          2.3508376809    0.50367044629712
 s    1 1.00
         0.44605124672                   1
 s    1 1.00
          0.1684885619                   1
 p    5 1.00
          307.66790569  -0.0088797025588865
          72.102015515  -0.064284071721237
          22.532680262   -0.24288739736006
          7.8991765444   -0.48340836369878
          2.8767268321   -0.38952563875509
 p    1 1.00
         0.77459363955                   1
 p    1 1.00
         0.21037699698                   1
 d    1 1.00
                  0.65                   1

[5d]
[7f]
[9g]

[MO]
 Sym= A
 Ene=               0
 Spin= Alpha
 Occup=    1.00000
   1    0.0035054702347984
   2    -0.011537746544644
   3     0.042695354009513
   4     0.045307315219806
   5    -0.027290144249756
   6      0.01891077252981
   7    0.00036998942800761
   8     0.010390545460286
   9    -0.061655307410464
  10    -0.0011116318085234
  11    -0.034821836637615
  12    -0.038948990365933
  13    -0.0019625002274759
  14      0.08792984341855
  15    -0.057896992996306
  16    -0.066443117612921
  17    0.0070996528760694
  18     0.048846079499787
  19    -0.0026285536105179
  20    -0.031963885860649
  21    -0.048828776457935
  22    0.00066360075372886
  23     0.024316305835394
  24    -0.0012668641717529
  25    -0.0013568453706047
  26     0.002725469231291
  27    1.7389172230891e-05
  28    0.0022503786580439
  29    5.1833688465762e-05
  30    -0.0010889575534483
  31    -4.7861203306429e-05
  32      0.17402581007806
  33      -0.2427644204735
  34     -0.18353843304231
  35    -6.8119037750038e-16
  36    5.2088578200166e-16
  37      0.48436090436076
  38    -1.2424746123071e-15
  39    -7.9745504942651e-16
  40       0.4115824187286
  41     0.013052647385661
  42    -2.6243395333456e-17
  43    -3.2555719177409e-18
  44    -0.0039318803003177
  45    0.00019862816913813
  46    0.0035054702347984
  47    -0.011537746544644
  48     0.042695354009512
  49     0.045307315219806
  50    -0.027290144249756
  51    -0.018910772529811
  52    -0.00036998942800754
  53     0.010390545460286
  54     0.061655307410464
  55    0.0011116318085235
  56    -0.034821836637615
  57     0.038948990365934
  58    0.0019625002274758
  59      0.08792984341855
  60    -0.057896992996306
  61      0.06644311761292
  62    -0.0070996528760697
  63     0.048846079499787
  64    -0.0026285536105178
  65    -0.031963885860649
  66     0.048828776457935
  67    -0.00066360075372891
  68     0.024316305835394
  69    -0.0012668641717529
  70    -0.0013568453706046
  71    -0.002725469231291
  72    -1.7389172230892e-05
  73    0.0022503786580438
  74    5.1833688465762e-05
  75    0.0010889575534483
  76    4.7861203306426e-05
  77    -0.00063059696207435
  78     0.004678896087486
  79    -0.011427614427959
  80    -0.017201410042456
  81    -0.0021005269160703
  82    -0.0013363297909479
  83    -0.00090464307212679
  84    -0.0022833197248702
  85    -0.0020104151402712
  86    -0.00074496794969055
  87    -0.0046852541373329
  88    -0.015234001844929
  89    0.0095778113341009
  90    -0.00050489133582099
  91    0.0031589007496006
  92    0.0002080959007357
  93    0.0018106597365907
  94    -0.0019523771472151
  95    0.00050916586071532
  96    -0.0029770669060141
  97    -0.0020906441512869
  98     0.027363140719826
  99    -0.0079326911053248
 100    0.0015187847934226
 101    0.00022109676064453
 102    -0.013261173651433
 103    0.0013967311762969
 104    -0.00079479483886547
 105    -0.027226484631431
 106      0.01299494343337
 107    0.0069476930080609
 108    0.0015631172150901
 109    -0.0014036252289202
 110    0.0016908566764077
 111    -0.001685125384978
 112    -3.5335659325977e-05
 113    0.00039184830851383
 114    -0.002173191899696
 115    -0.0030122006326786
 116     0.016097332632436
 117    -0.006632535291873
 118    -0.0033260716955728
 119    -0.0022496999615265
 120    -0.011355974810356
 121    -0.0041269340532774
 122    -0.0037843718709931
 123    -0.016706954419519
 124    -0.016247180213166
 125    -0.010137399488302
 126    -0.00069809204913855
 127    -0.0013905683199701
 128    -0.00095599164818689
 129    -0.0012489198728539
 130    9.1858832360473e-05
 131    -0.00063059696207438
 132     0.004678896087486
 133    -0.011427614427959
 134    -0.017201410042456
 135    0.0021005269160703
 136    0.0013363297909479
 137    -0.00090464307212682
 138    0.0022833197248701
 139    0.0020104151402713
 140    -0.00074496794969059
 141    0.0046852541373329
 142     0.015234001844929
 143    0.0095778113341009
 144    -0.00050489133582099
 145    -0.0031589007496006
 146    -0.00020809590073569
 147    0.0018106597365907
 148    -0.0019523771472151
 149    0.00050916586071531
 150    -0.002977066906014
 151    -0.0020906441512871
 152     0.027363140719826
 153    0.0079326911053247
 154    -0.0015187847934226
 155    0.00022109676064447
 156     0.013261173651433
 157    -0.0013967311762967
 158    -0.00079479483886559
 159     0.027226484631431
 160     -0.01299494343337
 161    0.0069476930080607
 162    0.0015631172150901
 163    0.0014036252289202
 164    -0.0016908566764077
 165    -0.001685125384978
 166    -3.5335659325977e-05
 167    0.00039184830851383
 168    -0.002173191899696
 169    -0.0030122006326787
 170     0.016097332632435
 171     0.006632535291873
 172    0.0033260716955728
 173    -0.0022496999615266
 174     0.011355974810356
 175    0.0041269340532774
 176    -0.0037843718709932
 177     0.016706954419519
 178     0.016247180213166
 179    -0.010137399488302
 180    -0.00069809204913855
 181    0.0013905683199701
 182    0.00095599164818689
 183    -0.0012489198728539
 184    9.1858832360485e-05
 Sym= B
 Ene=               1
 Spin= Alpha
 Occup=    1.00000
   1    0.00014545777284753
   2    -0.00027760542323384
   3    0.0025751241197194
   4    -0.0089985932916427
   5    -0.0042086642905773
   6    -0.00065911916657832
   7    0.0048397648305765
   8    -7.3897626282449e-05
   9    0.0022039535890905
  10    -0.016646114744226
  11    0.00031662890795856
  12     0.003738382152237
  13     0.098708164115812
  14    -0.0011442862684082
  15    0.0095417807805887
  16    -0.0074275891144677
  17    -0.028542190773006
  18    0.0011586968272226
  19     -0.11135526172442
  20    0.0023274453320643
  21    -0.0034864078251431
  22    -0.017763119682626
  23    -9.3746405785698e-05
  24     -0.07114098628915
  25    -0.00012571773613283
  26    -1.0058942068509e-05
  27    -0.00073759620843265
  28    9.8036427831643e-05
  29     0.001961250052972
  30    0.00021151477753762
  31     0.004048893362994
  32    -6.0073077316774e-16
  33    7.8142544397896e-16
  34    9.5139019180668e-16
  35     -0.02340849654018
  36       0.5550993357997
  37    9.3113229171691e-16
  38    -0.020739121273413
  39      0.47704985264915
  40    3.1187513362461e-16
  41    2.9527247443447e-18
  42    -0.00054044317243879
  43     0.011375468640172
  44    2.6951862540952e-17
  45    -6.8682785886984e-19
  46    -0.00014545777284758
  47    0.00027760542323397
  48     -0.00257512411972
  49    0.0089985932916428
  50    0.0042086642905772
  51    -0.00065911916657822
  52    0.0048397648305765
  53    7.3897626282425e-05
  54    0.0022039535890902
  55    -0.016646114744226
  56    -0.00031662890795848
  57    0.0037383821522373
  58     0.098708164115812
  59    0.0011442862684083
  60    -0.0095417807805889
  61    -0.0074275891144681
  62    -0.028542190773006
  63    -0.0011586968272219
  64      0.11135526172442
  65    -0.0023274453320644
  66    -0.0034864078251432
  67    -0.017763119682627
  68      9.3746405786e-05
  69      0.07114098628915
  70    0.00012571773613283
  71    -1.0058942068522e-05
  72    -0.00073759620843266
  73    -9.8036427831646e-05
  74    -0.001961250052972
  75    0.00021151477753763
  76     0.004048893362994
  77    0.00050402280474083
  78    -0.0033985918680924
  79    0.0041677687903898
  80     0.018341921191627
  81    -0.0013469571168998
  82    -0.00090352286112758
  83    -0.0027349639839389
  84    -0.0033023892082858
  85    -0.0011733728912132
  86    -0.0041648431109771
  87    -0.0021454645912394
  88    -0.0029087282383542
  89    -0.019922830683598
  90    0.00038528309285806
  91    -0.002386842818741
  92    -0.00086765760937875
  93    -0.0010598636427287
  94    2.0704620970849e-06
  95    0.0004762065375992
  96    -0.0032028064047904
  97    0.0046386575964822
  98     0.014638389794718
  99    -0.0022069727044923
 100    -0.00028376087616263
 101    0.0018145925793742
 102    -0.0042828215236658
 103    0.00024280884805508
 104    0.0024152273030176
 105    -0.010368901907562
 106    -0.0043780763139846
 107     0.013499268372255
 108    0.0019833831871423
 109    0.0001806194841192
 110     0.000276335489203
 111    -0.0013850527977437
 112    -0.00026267942190922
 113    -0.00058248045618909
 114    0.0040364699816346
 115    -0.0064822522988012
 116    -0.019384995709334
 117    0.0026298943153942
 118    0.0013902596421767
 119    -0.00074350851162822
 120    0.0059098065429736
 121    0.0016346284301769
 122    -0.0004309551261056
 123    0.0088408317978518
 124     0.017971242315692
 125    -0.0089653373752037
 126    -0.0015259671590859
 127    6.678259596357e-06
 128    0.0015985738672615
 129    0.0038015484344516
 130    0.0033073396716553
 131    -0.00050402280474085
 132    0.0033985918680925
 133     -0.00416776879039
 134    -0.018341921191627
 135    -0.0013469571168998
 136    -0.00090352286112754
 137     0.002734963983939
 138    -0.0033023892082858
 139    -0.0011733728912132
 140    0.0041648431109772
 141    -0.0021454645912395
 142    -0.002908728238354
 143     0.019922830683598
 144    -0.00038528309285807
 145    -0.002386842818741
 146    -0.00086765760937876
 147    0.0010598636427287
 148    -2.0704620970862e-06
 149    -0.00047620653759919
 150    0.0032028064047905
 151    -0.0046386575964823
 152    -0.014638389794718
 153    -0.0022069727044924
 154    -0.00028376087616261
 155    -0.0018145925793742
 156    -0.0042828215236659
 157    0.00024280884805513
 158    -0.0024152273030177
 159    -0.010368901907562
 160    -0.0043780763139845
 161    -0.013499268372256
 162    -0.0019833831871423
 163    0.00018061948411919
 164     0.000276335489203
 165    0.0013850527977437
 166    0.00026267942190923
 167    0.00058248045618896
 168    -0.0040364699816345
 169     0.006482252298801
 170     0.019384995709334
 171    0.0026298943153941
 172    0.0013902596421766
 173    0.0007435085116282
 174    0.0059098065429735
 175    0.0016346284301768
 176    0.00043095512610556
 177    0.0088408317978516
 178     0.017971242315691
 179    0.0089653373752037
 180    0.0015259671590859
 181    6.6782595963565e-06
 182    0.0015985738672615
 183    -0.0038015484344516
 184    -0.0033073396716553
 Sym= B
 Ene=               2
 Spin= Alpha
 Occup=    1.00000
   1    -0.0040627505810244
   2    0.0096513561655313
   3    -0.064356169801366
   4     0.090477512056922
   5    -0.0098231399712656
   6    0.0060827386940205
   7    0.00048017702164589
   8    0.0038703943903603
   9    -0.020012263767603
  10    -0.0015369903829796
  11    -0.012471847324591
  12    -0.086337571081225
  13    0.0028145942428585
  14     -0.01994020413939
  15    -0.052599369304361
  16     0.099591935118219
  17    0.0039374990577812
  18       0.1269841183891
  19    -0.0046984406763215
  20    -0.025445929043653
  21     0.047920358742708
  22    0.0016460759005608
  23     0.060705063832276
  24    -0.0027307562277928
  25    0.0025194482643469
  26    0.0013549473241366
  27    0.00054868861430403
  28    -0.0038930213170793
  29    -4.7108653749407e-05
  30    -0.0040289489807431
  31    0.00042085967304979
  32    1.7419876426683e-16
  33    -7.4372247972011e-16
  34    -5.1343775060702e-16
  35      0.51692308531516
  36     0.028949870002093
  37    9.4113627969396e-16
  38      0.42191213938212
  39     0.024487700682551
  40    7.6903224402791e-16
  41    2.7794186774552e-17
  42     0.013599632629119
  43    0.00069518412520615
  44    -1.3545467591644e-17
  45    1.0039459035407e-18
  46    0.0040627505810245
  47    -0.0096513561655314
  48     0.064356169801366
  49    -0.090477512056922
  50    0.0098231399712655
  51    0.0060827386940205
  52    0.00048017702164589
  53    -0.0038703943903603
  54    -0.020012263767603
  55    -0.0015369903829796
  56     0.012471847324591
  57    -0.086337571081225
  58    0.0028145942428585
  59      0.01994020413939
  60     0.052599369304361
  61     0.099591935118219
  62    0.0039374990577816
  63      -0.1269841183891
  64    0.0046984406763214
  65     0.025445929043653
  66     0.047920358742708
  67    0.0016460759005609
  68    -0.060705063832276
  69    0.0027307562277928
  70    -0.0025194482643469
  71    0.0013549473241366
  72    0.00054868861430403
  73    0.0038930213170793
  74    4.7108653749406e-05
  75    -0.0040289489807431
  76    0.00042085967304979
  77    -0.0027249624269033
  78     0.018801077512693
  79    -0.037222371143708
  80    -0.028322777016164
  81    -0.0010762677113202
  82    -0.0077648087115623
  83     0.011659302396245
  84    -0.001969299960383
  85    -0.015349258667798
  86     0.023825512936415
  87    0.0026375513217435
  88    -0.023830477280206
  89     0.036331410637577
  90    -0.00080785857354174
  91    0.00043839198136417
  92    0.00096827066937919
  93    0.00072826390387064
  94    1.2449910015762e-05
  95    -0.0028605031897925
  96      0.01994308031693
  97     -0.04414730500733
  98     -0.01726208351922
  99    0.0069715805152933
 100    -0.0050361706447107
 101    -0.0098586957276451
 102     0.015173357720217
 103    -0.011331643345124
 104    -0.020689726955907
 105     0.021452308445848
 106    -0.011697867786101
 107    -0.024008251313361
 108    -0.0015687005446385
 109    0.00036097705621818
 110    -0.00049438302472226
 111      0.00196859565651
 112    -0.00057267598074301
 113    -0.0027000594481932
 114     0.018750550755277
 115    -0.039610949461663
 116    -0.023400203314442
 117    0.0030623855209806
 118     0.011804297774889
 119    -0.0053186613492315
 120    0.0063386763120537
 121      0.02488461131545
 122    -0.010011182982087
 123     0.014708412531994
 124      0.03351382274013
 125    -0.015038266340051
 126    -0.00098683084574568
 127    0.00062518474989449
 128     0.001099184623812
 129    0.0019264229204315
 130    0.0020449824779177
 131    0.0027249624269034
 132    -0.018801077512693
 133     0.037222371143708
 134     0.028322777016164
 135    -0.0010762677113202
 136    -0.0077648087115622
 137    -0.011659302396245
 138    -0.001969299960383
 139    -0.015349258667798
 140    -0.023825512936415
 141    0.0026375513217435
 142    -0.023830477280206
 143    -0.036331410637577
 144    0.00080785857354173
 145    0.00043839198136416
 146    0.00096827066937919
 147    -0.00072826390387063
 148    -1.2449910015769e-05
 149    0.0028605031897925
 150    -0.019943080316931
 151      0.04414730500733
 152      0.01726208351922
 153    0.0069715805152933
 154    -0.0050361706447106
 155    0.0098586957276451
 156     0.015173357720217
 157    -0.011331643345124
 158     0.020689726955907
 159     0.021452308445848
 160    -0.011697867786101
 161     0.024008251313361
 162    0.0015687005446385
 163    0.00036097705621818
 164    -0.00049438302472226
 165     -0.00196859565651
 166    0.00057267598074302
 167    0.0027000594481932
 168    -0.018750550755278
 169     0.039610949461663
 170     0.023400203314442
 171    0.0030623855209806
 172     0.011804297774889
 173    0.0053186613492315
 174    0.0063386763120537
 175      0.02488461131545
 176     0.010011182982087
 177     0.014708412531994
 178      0.03351382274013
 179     0.015038266340051
 180    0.00098683084574568
 181    0.0006251847498945
 182     0.001099184623812
 183    -0.0019264229204315
 184    -0.0020449824779177
 Sym= A
 Ene=               3
 Spin= Alpha
 Occup=    1.00000
   1    -0.0092317035444289
   2     0.026729757650669
   3     -0.12710774433581
   4    0.0044893293404239
   5    -0.010225501592676
   6    -0.023771430379558
   7    0.00014069891265747
   8    -0.0050747026244991
   9     0.078243774113751
  10    -0.00042813329147102
  11     0.016592507646302
  12    -0.056700391168615
  13    -0.00076397107901353
  14     0.021082302508378
  15    -0.050210268457399
  16    -6.6834344830427e-05
  17    0.0090593890640732
  18     0.071352220028045
  19    -0.00083650866695719
  20    -0.028933294617168
  21    -0.00090414263827746
  22    0.0051509110462411
  23     0.041823545639999
  24    -0.00026399574514759
  25    0.0005285573563136
  26    0.0024064886972976
  27    0.00072812966910831
  28    -0.00097490875130817
  29    -0.00012901207000463
  30    -0.002967017683846
  31    0.00023104509140114
  32     -0.24828120766718
  33      0.40336224387187
  34      0.30589510207889
  35    5.7881706394425e-16
  36    -1.3626474079481e-15
  37      0.24818788348789
  38    4.6335792852036e-16
  39    -1.1754863359884e-15
  40      0.22029957718084
  41    0.0013192419632764
  42    1.5387739769985e-17
  43    -2.8047938870461e-17
  44    0.0098788188661291
  45    -0.00012370416256764
  46    -0.0092317035444289
  47     0.026729757650669
  48     -0.12710774433581
  49    0.0044893293404236
  50    -0.010225501592676
  51     0.023771430379558
  52    -0.00014069891265745
  53    -0.0050747026244988
  54    -0.078243774113751
  55    0.00042813329147107
  56     0.016592507646302
  57     0.056700391168615
  58    0.00076397107901301
  59     0.021082302508378
  60    -0.050210268457399
  61    6.6834344830545e-05
  62    -0.0090593890640729
  63     0.071352220028045
  64    -0.0008365086669579
  65    -0.028933294617168
  66    0.00090414263827754
  67    -0.005150911046241
  68     0.041823545639998
  69    -0.00026399574514798
  70    0.00052855735631359
  71    -0.0024064886972976
  72    -0.0007281296691083
  73    -0.00097490875130816
  74    -0.00012901207000462
  75     0.002967017683846
  76    -0.00023104509140116
  77    -0.0032995780646321
  78     0.022343274135972
  79    -0.042629740414162
  80    -0.022047212650009
  81     0.010039689746435
  82    -0.0099882780776602
  83     0.017160475990249
  84      0.01770284811897
  85    -0.018747283062521
  86     0.032789072420006
  87      0.02938066153554
  88    -0.029023733229582
  89     0.047124247348487
  90    -0.0024153658199092
  91    0.00065467834281732
  92    0.0024557792649376
  93    0.0017293576469668
  94    -0.00027220961035584
  95    -0.0026970437796718
  96      0.01827614962916
  97    -0.036038140325254
  98    -0.0068824861828289
  99     0.014920378058284
 100    -0.0053445457634371
 101    -0.0091356980827021
 102     0.026792921363003
 103    -0.011070266500139
 104    -0.018380141540081
 105     0.040019470857168
 106    -0.0098605192721433
 107    -0.020020899064719
 108    0.00026680984348779
 109    0.0025206447708308
 110    -0.0010073309154883
 111    -0.0012614314580681
 112    0.0020057208702601
 113    -0.0030480725137307
 114     0.020521090807371
 115    -0.038820810722319
 116    -0.013133739316964
 117     0.013528890686081
 118     0.015983041748684
 119    -0.0049229341504127
 120      0.02358317775995
 121     0.030805229610011
 122    -0.0091589038021464
 123     0.039260435332006
 124     0.038273399644898
 125    -0.013809831488406
 126    0.0010234285321621
 127    0.0002726344583102
 128    0.00094239321374693
 129    0.0021345626033051
 130    -0.0022325703997688
 131    -0.0032995780646321
 132     0.022343274135972
 133    -0.042629740414162
 134    -0.022047212650009
 135    -0.010039689746435
 136    0.0099882780776603
 137     0.017160475990249
 138     -0.01770284811897
 139     0.018747283062521
 140     0.032789072420006
 141     -0.02938066153554
 142     0.029023733229582
 143     0.047124247348487
 144    -0.0024153658199092
 145    -0.00065467834281731
 146    -0.0024557792649376
 147    0.0017293576469668
 148    -0.00027220961035584
 149    -0.0026970437796718
 150      0.01827614962916
 151    -0.036038140325254
 152    -0.0068824861828287
 153    -0.014920378058284
 154    0.0053445457634371
 155    -0.0091356980827021
 156    -0.026792921363004
 157     0.011070266500139
 158    -0.018380141540081
 159    -0.040019470857168
 160    0.0098605192721433
 161    -0.020020899064719
 162    0.0002668098434878
 163    -0.0025206447708309
 164    0.0010073309154883
 165    -0.0012614314580681
 166    0.0020057208702601
 167    -0.0030480725137307
 168     0.020521090807371
 169    -0.038820810722319
 170    -0.013133739316964
 171    -0.013528890686081
 172    -0.015983041748684
 173    -0.0049229341504127
 174     -0.02358317775995
 175    -0.030805229610011
 176    -0.0091589038021464
 177    -0.039260435332006
 178    -0.038273399644898
 179    -0.013809831488406
 180    0.0010234285321621
 181    -0.0002726344583102
 182    -0.00094239321374693
 183    0.0021345626033051
 184    -0.0022325703997688
 Sym= A
 Ene=               4