[Molden Format]
made by pyscf v[2.1.1]
[Atoms] (AU)
Cr   1   24     1.56143912275337    -2.46507591990239    -1.82404491365355
Cr   2   24    -1.56139565905251     2.46513072196000     1.82399011159594
O   3   8     0.00002078698737     0.00002834589187    -0.00002645616574
N   4   7     5.12832174930954    -1.10581670549011    -0.60767356069801
H   5   1     6.65216855026694    -1.66292686427314    -1.66487895135981
H   6   1     5.63710405218294    -1.59213394419468     1.18765885421890
H   7   1     5.20084187906585     0.81566059741989    -0.65509245834172
N   8   7     1.71230729763415    -0.02251608677419    -4.99594076510539
H   9   1     0.29795878723855     1.27247165241550    -4.90823668593820
H   10   1     1.50271021425414    -0.85583806455427    -6.73026148236459
H   11   1     3.34039895052705     0.99863710888315    -5.18656310846864
N   12   7     1.41057094787259    -4.90763575303059     1.34785282752440
H   13   1     1.64193389675534    -6.79355407945465     0.97314659318890
H   14   1    -0.29048681014202    -4.81040367474334     2.24006056107205
H   15   1     2.72468082571676    -4.56691435331926     2.71738081369757
N   16   7    -2.00544350380280    -3.82433513431467    -3.04041437688297
H   17   1    -2.87205678671934    -5.05516478184926    -1.83221042023780
H   18   1    -2.03637832046193    -4.76397121413665    -4.73247136936628
H   19   1    -3.24475802163669    -2.37551046050250    -3.28123540501917
N   20   7     3.37923471211299    -5.33493873459111    -3.94755661599306
H   21   1     4.17102617885350    -4.76109883042731    -5.61685374703210
H   22   1     2.26176595533881    -6.82326057413281    -4.47610923358166
H   23   1     4.85383336053810    -6.19899521806112    -3.03922195969837
N   24   7    -5.12827828560868     1.10587339727385     0.60762064836653
H   25   1    -5.15408816501799    -0.81544705836782     0.54662784797006
H   26   1    -5.69743166898356     1.68113626520945    -1.14337690194197
H   27   1    -6.63528195761783     1.56841410187914     1.73267665553083
N   28   7    -1.71226383393328     0.02257088883181     4.99588785277390
H   29   1    -1.62991523860311     0.86667375415253     6.73575491620870
H   30   1    -0.22416876152653    -1.19157625647512     4.98456461383551
H   31   1    -3.28782110056328    -1.08746368536834     5.11339858210385
N   32   7     2.00548696750367     3.82438993637228     3.04035957482536
H   33   1     2.05186651577887     4.68410571893416     4.77402266739321
H   34   1     2.83712330958063     5.12208376337235     1.87805706574587
H   35   1     3.26582090902109     2.38241174030942     3.19051154350492
N   36   7    -1.41052748417173     4.90769055508820    -1.34790762958202
H   37   1    -1.75003190025884     6.78104976168840    -0.99229329828299
H   38   1    -2.65834387984003     4.49309409198925    -2.75785496783350
H   39   1     0.32278033988471     4.89894112313146    -2.18344058692784
N   40   7    -3.37919124841212     5.33499353664873     3.94750181393545
H   41   1    -2.26357064378777     6.83195331430581     4.45515784003860
H   42   1    -4.15358022727151     4.76963661305810     5.62761006813313
H   43   1    -4.86681766873998     6.18449345978121     3.04686590187224
[GTO]
1 0
 s    6 1.00
          51528.086349  0.0017695545768669
          7737.2103487   0.013556436258096
           1760.374847   0.067162645785071
          496.87706544    0.23295905918518
          161.46520598    0.47040576982722
          55.466352268    0.35733072606876
 s    3 1.00
          107.54732999   -0.10605255446629
          12.408671897    0.62543981484169
          5.0423628826    0.44878820793655
 s    3 1.00
          8.5461640165   -0.21819012081133
          1.3900441221    0.70422525667731
         0.56066602876    0.42488555412558
 s    1 1.00
        0.071483705972                   1
 s    1 1.00
        0.028250687604                   1
 p    5 1.00
          640.48536096  0.0093555063746755
          150.69711194   0.068993338492216
          47.503755296     0.2634118959318
          16.934120165    0.51034501651775
           6.240968059    0.33195512953954
 p    3 1.00
          3.0885463206    0.32917682676976
          1.1791047769    0.55491385190365
         0.43369774432    0.23818412855984
 p    1 1.00
              0.120675                   1
 d    4 1.00
          27.559479426   0.036950140313562
          7.4687020327    0.18821519783039
          2.4345903574    0.44641244239929
         0.78244754808     0.5681617303244
 d    1 1.00
         0.21995774311                   1
 f    1 1.00
                 1.147                   1

2 0
 s    6 1.00
          51528.086349  0.0017695545768669
          7737.2103487   0.013556436258096
           1760.374847   0.067162645785071
          496.87706544    0.23295905918518
          161.46520598    0.47040576982722
          55.466352268    0.35733072606876
 s    3 1.00
          107.54732999   -0.10605255446629
          12.408671897    0.62543981484169
          5.0423628826    0.44878820793655
 s    3 1.00
          8.5461640165   -0.21819012081133
          1.3900441221    0.70422525667731
         0.56066602876    0.42488555412558
 s    1 1.00
        0.071483705972                   1
 s    1 1.00
        0.028250687604                   1
 p    5 1.00
          640.48536096  0.0093555063746755
          150.69711194   0.068993338492216
          47.503755296     0.2634118959318
          16.934120165    0.51034501651775
           6.240968059    0.33195512953954
 p    3 1.00
          3.0885463206    0.32917682676976
          1.1791047769    0.55491385190365
         0.43369774432    0.23818412855984
 p    1 1.00
              0.120675                   1
 d    4 1.00
          27.559479426   0.036950140313562
          7.4687020327    0.18821519783039
          2.4345903574    0.44641244239929
         0.78244754808     0.5681617303244
 d    1 1.00
         0.21995774311                   1
 f    1 1.00
                 1.147                   1

3 0
 s    5 1.00
          2266.1767785  -0.0053893503921743
          340.87010191   -0.04023472138896
          77.363135167   -0.18008184205526
           21.47964494   -0.46828857657651
          6.6589433124   -0.44692617160187
 s    1 1.00
         0.80975975668                   1
 s    1 1.00
         0.25530772234                   1
 p    3 1.00
          17.721504317   0.062630248763161
           3.863550544    0.33331138482352
          1.0480920883    0.74148638308122
 p    1 1.00
         0.27641544411                   1
 d    1 1.00
                   1.2                   1

4 0
 s    5 1.00
          1712.8415853  -0.0054477995804909
          257.64812677  -0.040627174632423
          58.458245853   -0.18111962250584
          16.198367905   -0.46843975563173
          5.0052600809   -0.44616846289231
 s    1 1.00
         0.58731856571                   1
 s    1 1.00
         0.18764592253                   1
 p    3 1.00
          13.571470233  -0.058848116969522
          2.9257372874   -0.32024624762471
         0.79927750754   -0.75328226520436
 p    1 1.00
         0.21954348034                   1
 d    1 1.00
                     1                   1

5 0
 s    3 1.00
             13.010701   0.033485484812989
             1.9622572    0.23472187088125
            0.44453796    0.81377028525955
 s    1 1.00
            0.12194962                   1
 p    1 1.00
                   0.8                   1

6 0
 s    3 1.00
             13.010701   0.033485484812989
             1.9622572    0.23472187088125
            0.44453796    0.81377028525955
 s    1 1.00
            0.12194962                   1
 p    1 1.00
                   0.8                   1

7 0
 s    3 1.00
             13.010701   0.033485484812989
             1.9622572    0.23472187088125
            0.44453796    0.81377028525955
 s    1 1.00
            0.12194962                   1
 p    1 1.00
                   0.8                   1

8 0
 s    5 1.00
          1712.8415853  -0.0054477995804909
          257.64812677  -0.040627174632423
          58.458245853   -0.18111962250584
          16.198367905   -0.46843975563173
          5.0052600809   -0.44616846289231
 s    1 1.00
         0.58731856571                   1
 s    1 1.00
         0.18764592253                   1
 p    3 1.00
          13.571470233  -0.058848116969522
          2.9257372874   -0.32024624762471
         0.79927750754   -0.75328226520436
 p    1 1.00
         0.21954348034                   1
 d    1 1.00
                     1                   1

9 0
 s    3 1.00
             13.010701   0.033485484812989
             1.9622572    0.23472187088125
            0.44453796    0.81377028525955
 s    1 1.00
            0.12194962                   1
 p    1 1.00
                   0.8                   1

10 0
 s    3 1.00
             13.010701   0.033485484812989
             1.9622572    0.23472187088125
            0.44453796    0.81377028525955
 s    1 1.00
            0.12194962                   1
 p    1 1.00
                   0.8                   1

11 0
 s    3 1.00
             13.010701   0.033485484812989
             1.9622572    0.23472187088125
            0.44453796    0.81377028525955
 s    1 1.00
            0.12194962                   1
 p    1 1.00
                   0.8                   1

12 0
 s    5 1.00
          1712.8415853  -0.0054477995804909
          257.64812677  -0.040627174632423
          58.458245853   -0.18111962250584
          16.198367905   -0.46843975563173
          5.0052600809   -0.44616846289231
 s    1 1.00
         0.58731856571                   1
 s    1 1.00
         0.18764592253                   1
 p    3 1.00
          13.571470233  -0.058848116969522
          2.9257372874   -0.32024624762471
         0.79927750754   -0.75328226520436
 p    1 1.00
         0.21954348034                   1
 d    1 1.00
                     1                   1

13 0
 s    3 1.00
             13.010701   0.033485484812989
             1.9622572    0.23472187088125
            0.44453796    0.81377028525955
 s    1 1.00
            0.12194962                   1
 p    1 1.00
                   0.8                   1

14 0
 s    3 1.00
             13.010701   0.033485484812989
             1.9622572    0.23472187088125
            0.44453796    0.81377028525955
 s    1 1.00
            0.12194962                   1
 p    1 1.00
                   0.8                   1

15 0
 s    3 1.00
             13.010701   0.033485484812989
             1.9622572    0.23472187088125
            0.44453796    0.81377028525955
 s    1 1.00
            0.12194962                   1
 p    1 1.00
                   0.8                   1

16 0
 s    5 1.00
          1712.8415853  -0.0054477995804909
          257.64812677  -0.040627174632423
          58.458245853   -0.18111962250584
          16.198367905   -0.46843975563173
          5.0052600809   -0.44616846289231
 s    1 1.00
         0.58731856571                   1
 s    1 1.00
         0.18764592253                   1
 p    3 1.00
          13.571470233  -0.058848116969522
          2.9257372874   -0.32024624762471
         0.79927750754   -0.75328226520436
 p    1 1.00
         0.21954348034                   1
 d    1 1.00
                     1                   1

17 0
 s    3 1.00
             13.010701   0.033485484812989
             1.9622572    0.23472187088125
            0.44453796    0.81377028525955
 s    1 1.00
            0.12194962                   1
 p    1 1.00
                   0.8                   1

18 0
 s    3 1.00
             13.010701   0.033485484812989
             1.9622572    0.23472187088125
            0.44453796    0.81377028525955
 s    1 1.00
            0.12194962                   1
 p    1 1.00
                   0.8                   1

19 0
 s    3 1.00
             13.010701   0.033485484812989
             1.9622572    0.23472187088125
            0.44453796    0.81377028525955
 s    1 1.00
            0.12194962                   1
 p    1 1.00
                   0.8                   1

20 0
 s    5 1.00
          1712.8415853  -0.0054477995804909
          257.64812677  -0.040627174632423
          58.458245853   -0.18111962250584
          16.198367905   -0.46843975563173
          5.0052600809   -0.44616846289231
 s    1 1.00
         0.58731856571                   1
 s    1 1.00
         0.18764592253                   1
 p    3 1.00
          13.571470233  -0.058848116969522
          2.9257372874   -0.32024624762471
         0.79927750754   -0.75328226520436
 p    1 1.00
         0.21954348034                   1
 d    1 1.00
                     1                   1

21 0
 s    3 1.00
             13.010701   0.033485484812989
             1.9622572    0.23472187088125
            0.44453796    0.81377028525955
 s    1 1.00
            0.12194962                   1
 p    1 1.00
                   0.8                   1

22 0
 s    3 1.00
             13.010701   0.033485484812989
             1.9622572    0.23472187088125
            0.44453796    0.81377028525955
 s    1 1.00
            0.12194962                   1
 p    1 1.00
                   0.8                   1

23 0
 s    3 1.00
             13.010701   0.033485484812989
             1.9622572    0.23472187088125
            0.44453796    0.81377028525955
 s    1 1.00
            0.12194962                   1
 p    1 1.00
                   0.8                   1

24 0
 s    5 1.00
          1712.8415853  -0.0054477995804909
          257.64812677  -0.040627174632423
          58.458245853   -0.18111962250584
          16.198367905   -0.46843975563173
          5.0052600809   -0.44616846289231
 s    1 1.00
         0.58731856571                   1
 s    1 1.00
         0.18764592253                   1
 p    3 1.00
          13.571470233  -0.058848116969522
          2.9257372874   -0.32024624762471
         0.79927750754   -0.75328226520436
 p    1 1.00
         0.21954348034                   1
 d    1 1.00
                     1                   1

25 0
 s    3 1.00
             13.010701   0.033485484812989
             1.9622572    0.23472187088125
            0.44453796    0.81377028525955
 s    1 1.00
            0.12194962                   1
 p    1 1.00
                   0.8                   1

26 0
 s    3 1.00
             13.010701   0.033485484812989
             1.9622572    0.23472187088125
            0.44453796    0.81377028525955
 s    1 1.00
            0.12194962                   1
 p    1 1.00
                   0.8                   1

27 0
 s    3 1.00
             13.010701   0.033485484812989
             1.9622572    0.23472187088125
            0.44453796    0.81377028525955
 s    1 1.00
            0.12194962                   1
 p    1 1.00
                   0.8                   1

28 0
 s    5 1.00
          1712.8415853  -0.0054477995804909
          257.64812677  -0.040627174632423
          58.458245853   -0.18111962250584
          16.198367905   -0.46843975563173
          5.0052600809   -0.44616846289231
 s    1 1.00
         0.58731856571                   1
 s    1 1.00
         0.18764592253                   1
 p    3 1.00
          13.571470233  -0.058848116969522
          2.9257372874   -0.32024624762471
         0.79927750754   -0.75328226520436
 p    1 1.00
         0.21954348034                   1
 d    1 1.00
                     1                   1

29 0
 s    3 1.00
             13.010701   0.033485484812989
             1.9622572    0.23472187088125
            0.44453796    0.81377028525955
 s    1 1.00
            0.12194962                   1
 p    1 1.00
                   0.8                   1

30 0
 s    3 1.00
             13.010701   0.033485484812989
             1.9622572    0.23472187088125
            0.44453796    0.81377028525955
 s    1 1.00
            0.12194962                   1
 p    1 1.00
                   0.8                   1

31 0
 s    3 1.00
             13.010701   0.033485484812989
             1.9622572    0.23472187088125
            0.44453796    0.81377028525955
 s    1 1.00
            0.12194962                   1
 p    1 1.00
                   0.8                   1

32 0
 s    5 1.00
          1712.8415853  -0.0054477995804909
          257.64812677  -0.040627174632423
          58.458245853   -0.18111962250584
          16.198367905   -0.46843975563173
          5.0052600809   -0.44616846289231
 s    1 1.00
         0.58731856571                   1
 s    1 1.00
         0.18764592253                   1
 p    3 1.00
          13.571470233  -0.058848116969522
          2.9257372874   -0.32024624762471
         0.79927750754   -0.75328226520436
 p    1 1.00
         0.21954348034                   1
 d    1 1.00
                     1                   1

33 0
 s    3 1.00
             13.010701   0.033485484812989
             1.9622572    0.23472187088125
            0.44453796    0.81377028525955
 s    1 1.00
            0.12194962                   1
 p    1 1.00
                   0.8                   1

34 0
 s    3 1.00
             13.010701   0.033485484812989
             1.9622572    0.23472187088125
            0.44453796    0.81377028525955
 s    1 1.00
            0.12194962                   1
 p    1 1.00
                   0.8                   1

35 0
 s    3 1.00
             13.010701   0.033485484812989
             1.9622572    0.23472187088125
            0.44453796    0.81377028525955
 s    1 1.00
            0.12194962                   1
 p    1 1.00
                   0.8                   1

36 0
 s    5 1.00
          1712.8415853  -0.0054477995804909
          257.64812677  -0.040627174632423
          58.458245853   -0.18111962250584
          16.198367905   -0.46843975563173
          5.0052600809   -0.44616846289231
 s    1 1.00
         0.58731856571                   1
 s    1 1.00
         0.18764592253                   1
 p    3 1.00
          13.571470233  -0.058848116969522
          2.9257372874   -0.32024624762471
         0.79927750754   -0.75328226520436
 p    1 1.00
         0.21954348034                   1
 d    1 1.00
                     1                   1

37 0
 s    3 1.00
             13.010701   0.033485484812989
             1.9622572    0.23472187088125
            0.44453796    0.81377028525955
 s    1 1.00
            0.12194962                   1
 p    1 1.00
                   0.8                   1

38 0
 s    3 1.00
             13.010701   0.033485484812989
             1.9622572    0.23472187088125
            0.44453796    0.81377028525955
 s    1 1.00
            0.12194962                   1
 p    1 1.00
                   0.8                   1

39 0
 s    3 1.00
             13.010701   0.033485484812989
             1.9622572    0.23472187088125
            0.44453796    0.81377028525955
 s    1 1.00
            0.12194962                   1
 p    1 1.00
                   0.8                   1

40 0
 s    5 1.00
          1712.8415853  -0.0054477995804909
          257.64812677  -0.040627174632423
          58.458245853   -0.18111962250584
          16.198367905   -0.46843975563173
          5.0052600809   -0.44616846289231
 s    1 1.00
         0.58731856571                   1
 s    1 1.00
         0.18764592253                   1
 p    3 1.00
          13.571470233  -0.058848116969522
          2.9257372874   -0.32024624762471
         0.79927750754   -0.75328226520436
 p    1 1.00
         0.21954348034                   1
 d    1 1.00
                     1                   1

41 0
 s    3 1.00
             13.010701   0.033485484812989
             1.9622572    0.23472187088125
            0.44453796    0.81377028525955
 s    1 1.00
            0.12194962                   1
 p    1 1.00
                   0.8                   1

42 0
 s    3 1.00
             13.010701   0.033485484812989
             1.9622572    0.23472187088125
            0.44453796    0.81377028525955
 s    1 1.00
            0.12194962                   1
 p    1 1.00
                   0.8                   1

43 0
 s    3 1.00
             13.010701   0.033485484812989
             1.9622572    0.23472187088125
            0.44453796    0.81377028525955
 s    1 1.00
            0.12194962                   1
 p    1 1.00
                   0.8                   1

[5d]
[7f]
[9g]

[MO]
 Sym= A
 Ene=               0
 Spin= Alpha
 Occup=    1.00000
   1    -0.011404004211367
   2     0.021357820165762
   3     -0.21248351439746
   4    -0.0062815035359291
   5    0.0080587305659845
   6     -0.01765053215857
   7     0.027846729187107
   8     0.019560627677812
   9     0.093534851047003
  10     -0.14748068413815
  11     -0.10456942591655
  12    -0.0086455569981066
  13     0.016033756763214
  14     0.013855205660627
  15      0.03931847575654
  16    -0.007547267726096
  17    -0.071324963143164
  18    -0.030875373018724
  19    -0.00024622911924238
  20     0.034341721644201
  21    0.0019154207157231
  22    -0.071907257737477
  23    -0.020288382125698
  24     0.011117390275253
  25    -0.0017493932917449
  26    -0.00022917520172039
  27    0.00066922951991295
  28    -0.0012657593170549
  29    -0.0023526696432335
  30    0.0015135750325212
  31    0.00035543896896055
  32     0.011399101648615
  33    -0.021345611521155
  34      0.21241200766464
  35    0.0063070553317032
  36    -0.0077942995553618
  37     -0.01765454103477
  38     0.027840927192665
  39     0.019557965899509
  40     0.093548072746077
  41     -0.14746265183111
  42     -0.10456114652079
  43    -0.0086601798619308
  44     0.015970616740433
  45     0.013806046131311
  46    -0.039288346501038
  47    0.0078251777540469
  48     0.071088391687969
  49     0.031097927733686
  50    0.00051426971367205
  51    -0.034294274172907
  52    -0.0016665303427907
  53     0.071642633232958
  54     0.020452760839151
  55    -0.010865920451098
  56    -0.0017442492497049
  57    -0.00023171442909243
  58    0.00066876014252356
  59    -0.001260725584965
  60    -0.0023492622184831
  61    0.0015150799299563
  62    0.00035308396975919
  63    -0.00024501411850962
  64    -0.00039640840044192
  65    -0.00013334789104618
  66    0.0015636093671095
  67    -0.0012050216153517
  68    0.00034415373305223
  69     0.019944181536437
  70    -0.031241035989435
  71    -0.022683666827492
  72    -5.235517272428e-07
  73    5.5095470267028e-06
  74    -3.4792504321757e-06
  75    3.4607082408449e-06
  76    5.4622394003817e-06
  77    -0.017207771873239
  78    -0.065879297136022
  79    -0.046775801702431
  80    -0.057511019415484
  81    -0.0093984979335089
  82    -0.014473064045175
  83     0.044923105576207
  84     0.010864656220848
  85     0.011457266900982
  86    0.00034077529667782
  87    -0.00064289459989713
  88    -0.00034323763613187
  89    0.00067397149980647
  90    -0.00060730064627663
  91    0.0053837115118484
  92    0.0042050663792904
  93    0.0016145467887121
  94    0.00057293981284473
  95    0.00058327025023546
  96    -0.0013221974577692
  97    0.0040699057605616
  98    0.0015557034355924
  99    -0.00031549717871225
 100    0.00097745375090846
 101    -0.014911192119094
 102     0.002652710871841
 103    0.0014607943704549
 104    0.0022294945372414
 105    3.9983059554809e-05
 106     0.013311810849955
 107      0.17430277137072
 108     0.089666531678538
 109    -0.0064085837127006
 110     0.063502902016846
 111    -0.061337410474272
 112    0.0057540017005683
 113     -0.05080924111116
 114      0.04484350432671
 115    0.00066195985899871
 116    -9.0970944492172e-05
 117    0.00057915482930114
 118    0.00020952733189977
 119    0.00065473704938939
 120     0.021634467672987
 121     -0.00947163975583
 122    0.0032685296074341
 123    -0.0046812831766253
 124    0.0019861123393735
 125     0.034350290556795
 126    -0.0045764186060601
 127    0.00044131138239718
 128    0.00031203642138834
 129    0.0066922550985422
 130     0.030218738283911
 131    -0.0051917831666184
 132    -0.0041167830344092
 133    -0.0043804881515563
 134    0.0030107661933767
 135     0.015700317407634
 136      0.18141998647215
 137     0.093401545185346
 138    -0.013520797178285
 139    -0.044037715924228
 140     0.081885368502668
 141     0.011020293529879
 142     0.031749675022434
 143     -0.06398543756366
 144    -0.00058707070347629
 145    0.00039813022494507
 146    0.00028171086786748
 147    -0.00089788494910163
 148    -0.00022953285426164
 149     0.039066516829198
 150    -0.0045038036076537
 151    -0.00044386853927081
 152     0.007057864663866
 153    -0.0014289132308464
 154     0.021617493566272
 155    -0.0092869226272156
 156    0.0040372100401593
 157    0.0015895929926302
 158    -0.0044614257276943
 159     0.027237120498877
 160    -0.0060211522446936
 161    -0.0029800115689191
 162    0.0011719163602277
 163    -0.0059960226209309
 164    -0.018235784448299
 165    -0.069032225568358
 166    -0.048311269149985
 167     0.049081183849885
 168     0.032140261412373
 169     0.021361161617933
 170    -0.039924448931012
 171    -0.021161572261917
 172    -0.016852608806961
 173    0.00089591574706549
 174    -0.00012082931621107
 175    0.0002599277136004
 176    -0.00062848743485222
 177    0.00059372714132062
 178    0.00017739866777735
 179    0.0051658986834865
 180    -0.001225980068929
 181    -0.0012937954604395
 182    -0.00024249506907444
 183     0.004718578427903
 184    0.0047394402522037
 185    -0.0017041972737194
 186    -0.00072418577738771
 187    -0.00053733415933039
 188    -0.017180353255252
 189    0.0023896088537838
 190    -0.0025855820843044
 191    0.00092272084017268
 192    -0.0009506919296789
 193    -0.023603918776632
 194     -0.18580073235701
 195     -0.11013800125847
 196    -0.050351566469481
 197     0.076322100808343
 198     0.053227728118057
 199     0.042492764550983
 200    -0.067067389751792
 201    -0.046462717552867
 202    0.00011137856674276
 203    7.3094294688808e-06
 204    -0.00033868529598911
 205    -7.8540120388052e-05
 206    -0.00010499466799558
 207     -0.02623961392138
 208    0.0061140295286045
 209    0.0031015923719079
 210    -0.00023545514575731
 211    -0.0055941448483224
 212    -0.028117982432456
 213    0.0048509380585331
 214    -0.0012358939016182
 215    -0.0059256863624036
 216    -0.0026504611347064
 217    -0.024341951821879
 218     0.006273192428824
 219    0.0045013562442228
 220    -0.0041596294409646
 221    0.00087167157491259
 222     0.017304453893804
 223     0.066581809184473
 224      0.04726261622875
 225    -0.058229623434361
 226    -0.0090312360705529
 227    -0.014334303187652
 228     0.045339912339564
 229     0.010854939969753
 230     0.011441143871535
 231    -0.00041155095118797
 232    0.00064077656849052
 233    0.0004309816326006
 234    -0.00071985980307166
 235    0.00056511380325423
 236     0.016031304771295
 237    -0.0026202494869973
 238     0.001412966569402
 239    0.0023429005357453
 240    0.00017529949099106
 241    0.00049475827217845
 242    -0.0041293243387774
 243     0.001574221375386
 244    -0.00030943442662511
 245    0.00088511851947296
 246    -0.0053544525567054
 247    -0.0043248089146232
 248    0.0016192394279782
 249    0.00055493268560072
 250    0.00055153416635325
 251    -0.013307407120178
 252     -0.17411426429258
 253    -0.089503957896184
 254    -0.0063646685369934
 255     0.062860522621931
 256    -0.061645242802354
 257    0.0056669772045821
 258    -0.050426163907201
 259     0.045063860719694
 260    -0.00065866450275875
 261    0.00014483328399512
 262    -0.00060967943732155
 263    -0.00013745482734862
 264    -0.00057225010727844
 265    -0.034289708800126
 266     0.004512605802858
 267    0.00013642902574713
 268    0.00035137307711171
 269    0.0066853766568675
 270    -0.021949669837023
 271    0.0093238962695683
 272    0.0034244558531511
 273    -0.0044644782113916
 274    0.0022031517965638
 275    -0.029797671344034
 276    0.0051821716474658
 277    -0.0039970981134941
 278    -0.0045974363374422
 279    0.0028303880246132
 280     0.018339211588092
 281     0.069750423187899
 282     0.048816414061311
 283     0.049239104463778
 284     0.032963430876732
 285      0.02156990531992
 286    -0.040221857413642
 287    -0.021555016772761
 288    -0.016923307556536
 289    -0.00094011949210092
 290    0.00010390005098713
 291     -0.00018219251162
 292    0.00063217482010674
 293    -0.00065513879561909
 294    -0.0045865813358113
 295    -0.0048199408425545
 296    -0.0016748607088067
 297    -0.00075636471894732
 298    -0.00056503416038965
 299    -0.0010026684728624
 300    -0.0052463529465649
 301    -0.0011962048551436
 302    -0.001264318996969
 303    -0.00029284033586546
 304     0.018194744669106
 305    -0.0023568477533347
 306    -0.0026833433948558
 307    0.00098759639905179
 308    -0.00083829570081392
 309    -0.015670281758267
 310     -0.18119012989258
 311    -0.093004148283798
 312    -0.012906281406893
 313    -0.043933524231865
 314     0.081803326229506
 315     0.010617080678759
 316     0.031720533132513
 317    -0.064007281310161
 318    0.00060394824486902
 319    -0.00029962667115073
 320    -0.00027008123658842
 321    0.00088107084208095
 322    0.00032395186071673
 323    -0.039186018096827
 324    0.0044163919433438
 325    -0.00075214524298257
 326    0.0070263777033023
 327    -0.0014777089890175
 328    -0.026416438192029
 329    0.0061014983161412
 330    -0.0028105390393502
 331    0.00097270680756058
 332    -0.0060584845649995
 333    -0.022178348209884
 334    0.0087967029056324
 335    0.0041340388625294
 336     0.001805980552898
 337    -0.0043654650037462
 338     0.023453249020075
 339      0.18474047933695
 340      0.10953781862072
 341    -0.049994599238418
 342       0.0759188250845
 343     0.052922131690104
 344     0.042219338847294