[Molden Format]
made by pyscf v[2.1.1]
[Atoms] (AU)
Cr   1   24     1.56143912275337    -2.46507591990239    -1.82404491365355
Cr   2   24    -1.56139565905251     2.46513072196000     1.82399011159594
O   3   8     0.00002078698737     0.00002834589187    -0.00002645616574
N   4   7     5.12832174930954    -1.10581670549011    -0.60767356069801
H   5   1     6.65216855026694    -1.66292686427314    -1.66487895135981
H   6   1     5.63710405218294    -1.59213394419468     1.18765885421890
H   7   1     5.20084187906585     0.81566059741989    -0.65509245834172
N   8   7     1.71230729763415    -0.02251608677419    -4.99594076510539
H   9   1     0.29795878723855     1.27247165241550    -4.90823668593820
H   10   1     1.50271021425414    -0.85583806455427    -6.73026148236459
H   11   1     3.34039895052705     0.99863710888315    -5.18656310846864
N   12   7     1.41057094787259    -4.90763575303059     1.34785282752440
H   13   1     1.64193389675534    -6.79355407945465     0.97314659318890
H   14   1    -0.29048681014202    -4.81040367474334     2.24006056107205
H   15   1     2.72468082571676    -4.56691435331926     2.71738081369757
N   16   7    -2.00544350380280    -3.82433513431467    -3.04041437688297
H   17   1    -2.87205678671934    -5.05516478184926    -1.83221042023780
H   18   1    -2.03637832046193    -4.76397121413665    -4.73247136936628
H   19   1    -3.24475802163669    -2.37551046050250    -3.28123540501917
N   20   7     3.37923471211299    -5.33493873459111    -3.94755661599306
H   21   1     4.17102617885350    -4.76109883042731    -5.61685374703210
H   22   1     2.26176595533881    -6.82326057413281    -4.47610923358166
H   23   1     4.85383336053810    -6.19899521806112    -3.03922195969837
N   24   7    -5.12827828560868     1.10587339727385     0.60762064836653
H   25   1    -5.15408816501799    -0.81544705836782     0.54662784797006
H   26   1    -5.69743166898356     1.68113626520945    -1.14337690194197
H   27   1    -6.63528195761783     1.56841410187914     1.73267665553083
N   28   7    -1.71226383393328     0.02257088883181     4.99588785277390
H   29   1    -1.62991523860311     0.86667375415253     6.73575491620870
H   30   1    -0.22416876152653    -1.19157625647512     4.98456461383551
H   31   1    -3.28782110056328    -1.08746368536834     5.11339858210385
N   32   7     2.00548696750367     3.82438993637228     3.04035957482536
H   33   1     2.05186651577887     4.68410571893416     4.77402266739321
H   34   1     2.83712330958063     5.12208376337235     1.87805706574587
H   35   1     3.26582090902109     2.38241174030942     3.19051154350492
N   36   7    -1.41052748417173     4.90769055508820    -1.34790762958202
H   37   1    -1.75003190025884     6.78104976168840    -0.99229329828299
H   38   1    -2.65834387984003     4.49309409198925    -2.75785496783350
H   39   1     0.32278033988471     4.89894112313146    -2.18344058692784
N   40   7    -3.37919124841212     5.33499353664873     3.94750181393545
H   41   1    -2.26357064378777     6.83195331430581     4.45515784003860
H   42   1    -4.15358022727151     4.76963661305810     5.62761006813313
H   43   1    -4.86681766873998     6.18449345978121     3.04686590187224
[GTO]
1 0
 s    6 1.00
          51528.086349  0.0017695545768669
          7737.2103487   0.013556436258096
           1760.374847   0.067162645785071
          496.87706544    0.23295905918518
          161.46520598    0.47040576982722
          55.466352268    0.35733072606876
 s    3 1.00
          107.54732999   -0.10605255446629
          12.408671897    0.62543981484169
          5.0423628826    0.44878820793655
 s    3 1.00
          8.5461640165   -0.21819012081133
          1.3900441221    0.70422525667731
         0.56066602876    0.42488555412558
 s    1 1.00
        0.071483705972                   1
 s    1 1.00
        0.028250687604                   1
 p    5 1.00
          640.48536096  0.0093555063746755
          150.69711194   0.068993338492216
          47.503755296     0.2634118959318
          16.934120165    0.51034501651775
           6.240968059    0.33195512953954
 p    3 1.00
          3.0885463206    0.32917682676976
          1.1791047769    0.55491385190365
         0.43369774432    0.23818412855984
 p    1 1.00
              0.120675                   1
 d    4 1.00
          27.559479426   0.036950140313562
          7.4687020327    0.18821519783039
          2.4345903574    0.44641244239929
         0.78244754808     0.5681617303244
 d    1 1.00
         0.21995774311                   1
 f    1 1.00
                 1.147                   1

2 0
 s    6 1.00
          51528.086349  0.0017695545768669
          7737.2103487   0.013556436258096
           1760.374847   0.067162645785071
          496.87706544    0.23295905918518
          161.46520598    0.47040576982722
          55.466352268    0.35733072606876
 s    3 1.00
          107.54732999   -0.10605255446629
          12.408671897    0.62543981484169
          5.0423628826    0.44878820793655
 s    3 1.00
          8.5461640165   -0.21819012081133
          1.3900441221    0.70422525667731
         0.56066602876    0.42488555412558
 s    1 1.00
        0.071483705972                   1
 s    1 1.00
        0.028250687604                   1
 p    5 1.00
          640.48536096  0.0093555063746755
          150.69711194   0.068993338492216
          47.503755296     0.2634118959318
          16.934120165    0.51034501651775
           6.240968059    0.33195512953954
 p    3 1.00
          3.0885463206    0.32917682676976
          1.1791047769    0.55491385190365
         0.43369774432    0.23818412855984
 p    1 1.00
              0.120675                   1
 d    4 1.00
          27.559479426   0.036950140313562
          7.4687020327    0.18821519783039
          2.4345903574    0.44641244239929
         0.78244754808     0.5681617303244
 d    1 1.00
         0.21995774311                   1
 f    1 1.00
                 1.147                   1

3 0
 s    5 1.00
          2266.1767785  -0.0053893503921743
          340.87010191   -0.04023472138896
          77.363135167   -0.18008184205526
           21.47964494   -0.46828857657651
          6.6589433124   -0.44692617160187
 s    1 1.00
         0.80975975668                   1
 s    1 1.00
         0.25530772234                   1
 p    3 1.00
          17.721504317   0.062630248763161
           3.863550544    0.33331138482352
          1.0480920883    0.74148638308122
 p    1 1.00
         0.27641544411                   1
 d    1 1.00
                   1.2                   1

4 0
 s    5 1.00
          1712.8415853  -0.0054477995804909
          257.64812677  -0.040627174632423
          58.458245853   -0.18111962250584
          16.198367905   -0.46843975563173
          5.0052600809   -0.44616846289231
 s    1 1.00
         0.58731856571                   1
 s    1 1.00
         0.18764592253                   1
 p    3 1.00
          13.571470233  -0.058848116969522
          2.9257372874   -0.32024624762471
         0.79927750754   -0.75328226520436
 p    1 1.00
         0.21954348034                   1
 d    1 1.00
                     1                   1

5 0
 s    3 1.00
             13.010701   0.033485484812989
             1.9622572    0.23472187088125
            0.44453796    0.81377028525955
 s    1 1.00
            0.12194962                   1
 p    1 1.00
                   0.8                   1

6 0
 s    3 1.00
             13.010701   0.033485484812989
             1.9622572    0.23472187088125
            0.44453796    0.81377028525955
 s    1 1.00
            0.12194962                   1
 p    1 1.00
                   0.8                   1

7 0
 s    3 1.00
             13.010701   0.033485484812989
             1.9622572    0.23472187088125
            0.44453796    0.81377028525955
 s    1 1.00
            0.12194962                   1
 p    1 1.00
                   0.8                   1

8 0
 s    5 1.00
          1712.8415853  -0.0054477995804909
          257.64812677  -0.040627174632423
          58.458245853   -0.18111962250584
          16.198367905   -0.46843975563173
          5.0052600809   -0.44616846289231
 s    1 1.00
         0.58731856571                   1
 s    1 1.00
         0.18764592253                   1
 p    3 1.00
          13.571470233  -0.058848116969522
          2.9257372874   -0.32024624762471
         0.79927750754   -0.75328226520436
 p    1 1.00
         0.21954348034                   1
 d    1 1.00
                     1                   1

9 0
 s    3 1.00
             13.010701   0.033485484812989
             1.9622572    0.23472187088125
            0.44453796    0.81377028525955
 s    1 1.00
            0.12194962                   1
 p    1 1.00
                   0.8                   1

10 0
 s    3 1.00
             13.010701   0.033485484812989
             1.9622572    0.23472187088125
            0.44453796    0.81377028525955
 s    1 1.00
            0.12194962                   1
 p    1 1.00
                   0.8                   1

11 0
 s    3 1.00
             13.010701   0.033485484812989
             1.9622572    0.23472187088125
            0.44453796    0.81377028525955
 s    1 1.00
            0.12194962                   1
 p    1 1.00
                   0.8                   1

12 0
 s    5 1.00
          1712.8415853  -0.0054477995804909
          257.64812677  -0.040627174632423
          58.458245853   -0.18111962250584
          16.198367905   -0.46843975563173
          5.0052600809   -0.44616846289231
 s    1 1.00
         0.58731856571                   1
 s    1 1.00
         0.18764592253                   1
 p    3 1.00
          13.571470233  -0.058848116969522
          2.9257372874   -0.32024624762471
         0.79927750754   -0.75328226520436
 p    1 1.00
         0.21954348034                   1
 d    1 1.00
                     1                   1

13 0
 s    3 1.00
             13.010701   0.033485484812989
             1.9622572    0.23472187088125
            0.44453796    0.81377028525955
 s    1 1.00
            0.12194962                   1
 p    1 1.00
                   0.8                   1

14 0
 s    3 1.00
             13.010701   0.033485484812989
             1.9622572    0.23472187088125
            0.44453796    0.81377028525955
 s    1 1.00
            0.12194962                   1
 p    1 1.00
                   0.8                   1

15 0
 s    3 1.00
             13.010701   0.033485484812989
             1.9622572    0.23472187088125
            0.44453796    0.81377028525955
 s    1 1.00
            0.12194962                   1
 p    1 1.00
                   0.8                   1

16 0
 s    5 1.00
          1712.8415853  -0.0054477995804909
          257.64812677  -0.040627174632423
          58.458245853   -0.18111962250584
          16.198367905   -0.46843975563173
          5.0052600809   -0.44616846289231
 s    1 1.00
         0.58731856571                   1
 s    1 1.00
         0.18764592253                   1
 p    3 1.00
          13.571470233  -0.058848116969522
          2.9257372874   -0.32024624762471
         0.79927750754   -0.75328226520436
 p    1 1.00
         0.21954348034                   1
 d    1 1.00
                     1                   1

17 0
 s    3 1.00
             13.010701   0.033485484812989
             1.9622572    0.23472187088125
            0.44453796    0.81377028525955
 s    1 1.00
            0.12194962                   1
 p    1 1.00
                   0.8                   1

18 0
 s    3 1.00
             13.010701   0.033485484812989
             1.9622572    0.23472187088125
            0.44453796    0.81377028525955
 s    1 1.00
            0.12194962                   1
 p    1 1.00
                   0.8                   1

19 0
 s    3 1.00
             13.010701   0.033485484812989
             1.9622572    0.23472187088125
            0.44453796    0.81377028525955
 s    1 1.00
            0.12194962                   1
 p    1 1.00
                   0.8                   1

20 0
 s    5 1.00
          1712.8415853  -0.0054477995804909
          257.64812677  -0.040627174632423
          58.458245853   -0.18111962250584
          16.198367905   -0.46843975563173
          5.0052600809   -0.44616846289231
 s    1 1.00
         0.58731856571                   1
 s    1 1.00
         0.18764592253                   1
 p    3 1.00
          13.571470233  -0.058848116969522
          2.9257372874   -0.32024624762471
         0.79927750754   -0.75328226520436
 p    1 1.00
         0.21954348034                   1
 d    1 1.00
                     1                   1

21 0
 s    3 1.00
             13.010701   0.033485484812989
             1.9622572    0.23472187088125
            0.44453796    0.81377028525955
 s    1 1.00
            0.12194962                   1
 p    1 1.00
                   0.8                   1

22 0
 s    3 1.00
             13.010701   0.033485484812989
             1.9622572    0.23472187088125
            0.44453796    0.81377028525955
 s    1 1.00
            0.12194962                   1
 p    1 1.00
                   0.8                   1

23 0
 s    3 1.00
             13.010701   0.033485484812989
             1.9622572    0.23472187088125
            0.44453796    0.81377028525955
 s    1 1.00
            0.12194962                   1
 p    1 1.00
                   0.8                   1

24 0
 s    5 1.00
          1712.8415853  -0.0054477995804909
          257.64812677  -0.040627174632423
          58.458245853   -0.18111962250584
          16.198367905   -0.46843975563173
          5.0052600809   -0.44616846289231
 s    1 1.00
         0.58731856571                   1
 s    1 1.00
         0.18764592253                   1
 p    3 1.00
          13.571470233  -0.058848116969522
          2.9257372874   -0.32024624762471
         0.79927750754   -0.75328226520436
 p    1 1.00
         0.21954348034                   1
 d    1 1.00
                     1                   1

25 0
 s    3 1.00
             13.010701   0.033485484812989
             1.9622572    0.23472187088125
            0.44453796    0.81377028525955
 s    1 1.00
            0.12194962                   1
 p    1 1.00
                   0.8                   1

26 0
 s    3 1.00
             13.010701   0.033485484812989
             1.9622572    0.23472187088125
            0.44453796    0.81377028525955
 s    1 1.00
            0.12194962                   1
 p    1 1.00
                   0.8                   1

27 0
 s    3 1.00
             13.010701   0.033485484812989
             1.9622572    0.23472187088125
            0.44453796    0.81377028525955
 s    1 1.00
            0.12194962                   1
 p    1 1.00
                   0.8                   1

28 0
 s    5 1.00
          1712.8415853  -0.0054477995804909
          257.64812677  -0.040627174632423
          58.458245853   -0.18111962250584
          16.198367905   -0.46843975563173
          5.0052600809   -0.44616846289231
 s    1 1.00
         0.58731856571                   1
 s    1 1.00
         0.18764592253                   1
 p    3 1.00
          13.571470233  -0.058848116969522
          2.9257372874   -0.32024624762471
         0.79927750754   -0.75328226520436
 p    1 1.00
         0.21954348034                   1
 d    1 1.00
                     1                   1

29 0
 s    3 1.00
             13.010701   0.033485484812989
             1.9622572    0.23472187088125
            0.44453796    0.81377028525955
 s    1 1.00
            0.12194962                   1
 p    1 1.00
                   0.8                   1

30 0
 s    3 1.00
             13.010701   0.033485484812989
             1.9622572    0.23472187088125
            0.44453796    0.81377028525955
 s    1 1.00
            0.12194962                   1
 p    1 1.00
                   0.8                   1

31 0
 s    3 1.00
             13.010701   0.033485484812989
             1.9622572    0.23472187088125
            0.44453796    0.81377028525955
 s    1 1.00
            0.12194962                   1
 p    1 1.00
                   0.8                   1

32 0
 s    5 1.00
          1712.8415853  -0.0054477995804909
          257.64812677  -0.040627174632423
          58.458245853   -0.18111962250584
          16.198367905   -0.46843975563173
          5.0052600809   -0.44616846289231
 s    1 1.00
         0.58731856571                   1
 s    1 1.00
         0.18764592253                   1
 p    3 1.00
          13.571470233  -0.058848116969522
          2.9257372874   -0.32024624762471
         0.79927750754   -0.75328226520436
 p    1 1.00
         0.21954348034                   1
 d    1 1.00
                     1                   1

33 0
 s    3 1.00
             13.010701   0.033485484812989
             1.9622572    0.23472187088125
            0.44453796    0.81377028525955
 s    1 1.00
            0.12194962                   1
 p    1 1.00
                   0.8                   1

34 0
 s    3 1.00
             13.010701   0.033485484812989
             1.9622572    0.23472187088125
            0.44453796    0.81377028525955
 s    1 1.00
            0.12194962                   1
 p    1 1.00
                   0.8                   1

35 0
 s    3 1.00
             13.010701   0.033485484812989
             1.9622572    0.23472187088125
            0.44453796    0.81377028525955
 s    1 1.00
            0.12194962                   1
 p    1 1.00
                   0.8                   1

36 0
 s    5 1.00
          1712.8415853  -0.0054477995804909
          257.64812677  -0.040627174632423
          58.458245853   -0.18111962250584
          16.198367905   -0.46843975563173
          5.0052600809   -0.44616846289231
 s    1 1.00
         0.58731856571                   1
 s    1 1.00
         0.18764592253                   1
 p    3 1.00
          13.571470233  -0.058848116969522
          2.9257372874   -0.32024624762471
         0.79927750754   -0.75328226520436
 p    1 1.00
         0.21954348034                   1
 d    1 1.00
                     1                   1

37 0
 s    3 1.00
             13.010701   0.033485484812989
             1.9622572    0.23472187088125
            0.44453796    0.81377028525955
 s    1 1.00
            0.12194962                   1
 p    1 1.00
                   0.8                   1

38 0
 s    3 1.00
             13.010701   0.033485484812989
             1.9622572    0.23472187088125
            0.44453796    0.81377028525955
 s    1 1.00
            0.12194962                   1
 p    1 1.00
                   0.8                   1

39 0
 s    3 1.00
             13.010701   0.033485484812989
             1.9622572    0.23472187088125
            0.44453796    0.81377028525955
 s    1 1.00
            0.12194962                   1
 p    1 1.00
                   0.8                   1

40 0
 s    5 1.00
          1712.8415853  -0.0054477995804909
          257.64812677  -0.040627174632423
          58.458245853   -0.18111962250584
          16.198367905   -0.46843975563173
          5.0052600809   -0.44616846289231
 s    1 1.00
         0.58731856571                   1
 s    1 1.00
         0.18764592253                   1
 p    3 1.00
          13.571470233  -0.058848116969522
          2.9257372874   -0.32024624762471
         0.79927750754   -0.75328226520436
 p    1 1.00
         0.21954348034                   1
 d    1 1.00
                     1                   1

41 0
 s    3 1.00
             13.010701   0.033485484812989
             1.9622572    0.23472187088125
            0.44453796    0.81377028525955
 s    1 1.00
            0.12194962                   1
 p    1 1.00
                   0.8                   1

42 0
 s    3 1.00
             13.010701   0.033485484812989
             1.9622572    0.23472187088125
            0.44453796    0.81377028525955
 s    1 1.00
            0.12194962                   1
 p    1 1.00
                   0.8                   1

43 0
 s    3 1.00
             13.010701   0.033485484812989
             1.9622572    0.23472187088125
            0.44453796    0.81377028525955
 s    1 1.00
            0.12194962                   1
 p    1 1.00
                   0.8                   1

[5d]
[7f]
[9g]

[MO]
 Sym= A
 Ene=               0
 Spin= Alpha
 Occup=    1.00000
   1    -0.011624979265205
   2     0.021812200555599
   3     -0.21629698971605
   4    -0.0012275740781267
   5    0.0071311938365844
   6    -0.018002464823286
   7     0.027745677355182
   8     0.020578793876555
   9     0.095078773188479
  10     -0.14711265270205
  11     -0.10898588047232
  12    -0.010008136524814
  13     0.018833454879487
  14     0.014357231629671
  15     0.039108050851678
  16    -0.0083119878206765
  17    -0.069945380900756
  18    -0.030973408078004
  19    -0.0011796473486332
  20     0.034472876825287
  21    0.0023397959658368
  22    -0.072451928941439
  23    -0.019624120970496
  24     0.011879786456967
  25    -0.0020119413368038
  26    -0.00028417149243609
  27    0.00081725464688526
  28    -0.0014071773958463
  29    -0.0027578880862589
  30    0.0018072020932747
  31    0.00038286343469812
  32     0.011544462331491
  33    -0.021687815690606
  34      0.21488148331233
  35    0.0085399279938497
  36    -0.0086004416189563
  37    -0.018000453631751
  38      0.02772275143546
  39      0.02055427577706
  40      0.09510004669531
  41     -0.14708373205164
  42     -0.10894195731906
  43    -0.0081063220870968
  44     0.015687369479474
  45     0.011988470274912
  46    -0.039019803876223
  47     0.010510687503371
  48     0.067324340767345
  49     0.032621340065543
  50    0.0039708777340152
  51    -0.034004842059015
  52    -5.0860591480433e-05
  53     0.068900911067614
  54     0.021081668212891
  55    -0.0088478451784134
  56    -0.0016923501325203
  57    -0.00020544432008427
  58    0.00068419399252973
  59    -0.0011689760246534
  60    -0.0022565785945598
  61     0.001452779724949
  62    0.00033769113013472
  63     -0.01201150078164
  64     0.019292172014652
  65     0.016237024626083
  66     0.005721983855908
  67    -0.0088410282173058
  68    -0.0065803975203133
  69     0.023496110979423
  70    -0.037867860027444
  71    -0.028512092428819
  72    -3.9146988573129e-05
  73    -0.00022184067605993
  74    0.00035148378811195
  75    -0.00014352737032927
  76    -0.0003009763372541
  77    -0.016528770499288
  78    -0.059681603875871
  79    -0.043625863840684
  80    -0.054852326504137
  81    -0.0087046925699057
  82    -0.013123409510525
  83     0.042808149954799
  84    0.0099502394124403
  85     0.010371365595246
  86    0.00031552516906064
  87    -0.00065875796293517
  88    -0.00035293561859836
  89    0.0007359401204179
  90    -0.0006344245135155
  91    0.0065551111159781
  92    0.0041459778880788
  93    0.0014300694495752
  94    0.00064326186646661
  95    0.00065342781156252
  96    -0.00065235170579786
  97    0.0038393423879861
  98    0.0014446792737517
  99    -0.00028378801296158
 100    0.00082797912570978
 101    -0.013508305656214
 102    0.0023441136587923
 103    0.0013433139703356
 104    0.0019699458033432
 105    4.3866263425944e-06
 106     0.014936293954055
 107      0.18251134090321
 108     0.094467094223844
 109    -0.0073098407034925
 110     0.068000750936104
 111    -0.063976525728637
 112     0.006256768664685
 113    -0.054371567814845
 114     0.047412362617125
 115    0.0008079099197768
 116    -0.00011081987693715
 117    0.00059931650450344
 118    0.00022236159794915
 119    0.00074132083028068
 120     0.021428144791772
 121    -0.010432804740714
 122    0.0033250640044523
 123    -0.0048549763615072
 124    0.0020782363257694
 125     0.036817024478157
 126    -0.0044235721023593
 127    0.00050488436681972
 128    0.00037132680249897
 129    0.0070548405617951
 130     0.031516928182578
 131    -0.0053531859019432
 132    -0.0042840110009856
 133    -0.0046158484218209
 134    0.0030920107534414
 135     0.015006555991517
 136      0.18287709741371
 137     0.093357445256876
 138    -0.012647511811179
 139    -0.045667344842874
 140     0.080223321701977
 141     0.010670311341001
 142     0.032302663927868
 143    -0.063063118204215
 144    -0.0005935526766378
 145    0.00041058938917462
 146    0.00025974870428414
 147    -0.00084737845656222
 148    -0.00022811249205447
 149     0.037888591791636
 150    -0.004874602433121
 151    -0.00047125348884962
 152     0.006930532309413
 153    -0.0013553854545378
 154     0.023382993780718
 155    -0.0090057169346723
 156    0.0042300483074085
 157    0.0016778397196042
 158    -0.0045383269071109
 159     0.028408102607299
 160    -0.0058353587622389
 161     -0.00313252195681
 162    0.0012231251219954
 163    -0.0060604489571052
 164    -0.017654204762876
 165    -0.063090675138593
 166    -0.045506317430288
 167     0.046515851959916
 168     0.030891244745747
 169     0.020976100320869
 170    -0.037718709301584
 171    -0.020441488961885
 172    -0.016434704045451
 173    0.00091531279483883
 174    -9.5225292933687e-05
 175    0.00031137820308376
 176    -0.00065900011725834
 177    0.00064541202861455
 178    0.00080467574977394
 179    0.0049517301367522
 180    -0.0011214730817854
 181    -0.0011724759958428
 182    -0.00030842671389111
 183    0.0059916793525502
 184    0.0047533353922855
 185    -0.0016718667217831
 186    -0.00058675210140725
 187    -0.00037357232632742
 188    -0.015880639365305
 189    0.0021440666919991
 190    -0.0023334482427462
 191    0.00081383963846974
 192    -0.00088854186481015
 193    -0.024985351784188
 194     -0.19704150911451
 195     -0.11810652979145
 196    -0.053550233669841
 197     0.078309564161886
 198     0.060102875068525
 199     0.045545429467164
 200    -0.070238752748751
 201    -0.051671980331941
 202    0.0002151156455968
 203    -0.00012744973301376
 204    -0.00036586231366501
 205    -8.1668249475299e-05
 206    -6.137451661332e-05
 207    -0.024644279738402
 208    0.0071388233156741
 209    0.0031142838442477
 210    -0.00025575686505599
 211    -0.0056755447979392
 212    -0.030673877222723
 213    0.0050183164451041
 214    -0.0014068662843875
 215    -0.0062777308347266
 216     -0.00297127310673
 217    -0.028089751290193
 218    0.0062175004207989
 219    0.0050349370965717
 220    -0.0044448603194652
 221    0.00093647208517282
 222     0.018068704057083
 223     0.071730681449094
 224     0.050005920492242
 225    -0.061221210540463
 226    -0.010239205994112
 227    -0.014323588111958
 228     0.047611694317811
 229     0.011934143976431
 230     0.011931546301982
 231    -0.00040453089041317
 232    0.00066882487203047
 233    0.00040229648471163
 234    -0.00071982717995394
 235    0.00058792045744767
 236     0.016805484848573
 237    -0.0027379515473539
 238    0.0014876653893601
 239    0.0024997454085622
 240    0.00015756280389874
 241    0.0018805454947262
 242    -0.0040453237145272
 243    0.0017468481214576
 244    -0.00034170383941461
 245    0.0010657326092607
 246    -0.0053464277328221
 247    -0.0045970459847412
 248    0.0016985011345421
 249    0.00054709888978309
 250    0.00050538904247463
 251    -0.013475410698899
 252      -0.1710084740776
 253    -0.088314383448143
 254    -0.0073626671749201
 255     0.063926157534614
 256    -0.059121821614304
 257    0.0061397747583181
 258    -0.050636941164481
 259     0.043642102020594
 260    -0.00074516337079937
 261    0.00015423664269335
 262    -0.00067791568682323
 263    -0.00012258309654411
 264    -0.00060882900723629
 265    -0.035559319500555
 266    0.0041053562331183
 267    0.00020431329139335
 268    0.00033733132810183
 269    0.0067379315980282
 270    -0.019679688104201
 271     0.009724706807384
 272     0.003206931899405
 273    -0.004318191526433
 274    0.0021221012412935
 275     -0.02898892298758
 276    0.0053048451782573
 277    -0.0038520959694547
 278    -0.0045739273709232
 279     0.002714159133282
 280     0.019202051905737
 281      0.07515561079438
 282     0.051914408790163
 283     0.051915991787245
 284     0.033865042247987
 285     0.023506094714994
 286    -0.042723764083503
 287    -0.022293929674557
 288    -0.017999012105761
 289    -0.00095365469986185
 290    0.00011755892210677
 291    -0.00022605685102587
 292    0.00064557278247671
 293    -0.00063967475297674
 294    -0.004634944346187
 295    -0.0051166561013452
 296    -0.0016949351122365
 297    -0.00080186374574811
 298    -0.00064616383163198
 299    0.00041131496001067
 300    -0.0051402012351543
 301    -0.0013689901000937
 302    -0.0014575471618861
 303    -0.00023857776035879
 304     0.019064654922614
 305    -0.0025677207352656
 306    -0.0028165443568567
 307    0.0010884919524696
 308    -0.00090603070170818
 309    -0.013518585050995
 310     -0.17131752177763
 311    -0.087047293833213
 312    -0.011787156622903
 313    -0.041345026506821
 314     0.075616632876722
 315    0.0098473205229734
 316      0.02929824034779
 317    -0.058908222658008
 318    0.00059302557087545
 319    -0.00027830925912554
 320    -0.00031416214399538
 321    0.00079805090284232
 322    0.00031474247407413
 323    -0.036816358673448
 324    0.0044788470142658
 325    -0.00070531894651449
 326    0.0065947261920062
 327    -0.0013996992923882
 328    -0.025599740529409
 329    0.0057719110159584
 330    -0.0027314098559055
 331    0.00093547334837498
 332    -0.0057572064459653
 333    -0.021788874611688
 334    0.0081725817302601
 335    0.0039892534185567
 336    0.0017523747751567
 337    -0.0041426285903927
 338     0.022104786416291
 339      0.17443550934224
 340      0.10303856015064
 341    -0.047334393845979
 342     0.068679339482503
 343      0.05300743680782
 344     0.039878328744756