[Molden Format]
made by pyscf v[2.1.1]
[Atoms] (AU)
Cr   1   24     1.56143912275337    -2.46507591990239    -1.82404491365355
Cr   2   24    -1.56139565905251     2.46513072196000     1.82399011159594
O   3   8     0.00002078698737     0.00002834589187    -0.00002645616574
N   4   7     5.12832174930954    -1.10581670549011    -0.60767356069801
H   5   1     6.65216855026694    -1.66292686427314    -1.66487895135981
H   6   1     5.63710405218294    -1.59213394419468     1.18765885421890
H   7   1     5.20084187906585     0.81566059741989    -0.65509245834172
N   8   7     1.71230729763415    -0.02251608677419    -4.99594076510539
H   9   1     0.29795878723855     1.27247165241550    -4.90823668593820
H   10   1     1.50271021425414    -0.85583806455427    -6.73026148236459
H   11   1     3.34039895052705     0.99863710888315    -5.18656310846864
N   12   7     1.41057094787259    -4.90763575303059     1.34785282752440
H   13   1     1.64193389675534    -6.79355407945465     0.97314659318890
H   14   1    -0.29048681014202    -4.81040367474334     2.24006056107205
H   15   1     2.72468082571676    -4.56691435331926     2.71738081369757
N   16   7    -2.00544350380280    -3.82433513431467    -3.04041437688297
H   17   1    -2.87205678671934    -5.05516478184926    -1.83221042023780
H   18   1    -2.03637832046193    -4.76397121413665    -4.73247136936628
H   19   1    -3.24475802163669    -2.37551046050250    -3.28123540501917
N   20   7     3.37923471211299    -5.33493873459111    -3.94755661599306
H   21   1     4.17102617885350    -4.76109883042731    -5.61685374703210
H   22   1     2.26176595533881    -6.82326057413281    -4.47610923358166
H   23   1     4.85383336053810    -6.19899521806112    -3.03922195969837
N   24   7    -5.12827828560868     1.10587339727385     0.60762064836653
H   25   1    -5.15408816501799    -0.81544705836782     0.54662784797006
H   26   1    -5.69743166898356     1.68113626520945    -1.14337690194197
H   27   1    -6.63528195761783     1.56841410187914     1.73267665553083
N   28   7    -1.71226383393328     0.02257088883181     4.99588785277390
H   29   1    -1.62991523860311     0.86667375415253     6.73575491620870
H   30   1    -0.22416876152653    -1.19157625647512     4.98456461383551
H   31   1    -3.28782110056328    -1.08746368536834     5.11339858210385
N   32   7     2.00548696750367     3.82438993637228     3.04035957482536
H   33   1     2.05186651577887     4.68410571893416     4.77402266739321
H   34   1     2.83712330958063     5.12208376337235     1.87805706574587
H   35   1     3.26582090902109     2.38241174030942     3.19051154350492
N   36   7    -1.41052748417173     4.90769055508820    -1.34790762958202
H   37   1    -1.75003190025884     6.78104976168840    -0.99229329828299
H   38   1    -2.65834387984003     4.49309409198925    -2.75785496783350
H   39   1     0.32278033988471     4.89894112313146    -2.18344058692784
N   40   7    -3.37919124841212     5.33499353664873     3.94750181393545
H   41   1    -2.26357064378777     6.83195331430581     4.45515784003860
H   42   1    -4.15358022727151     4.76963661305810     5.62761006813313
H   43   1    -4.86681766873998     6.18449345978121     3.04686590187224
[GTO]
1 0
 s    6 1.00
          51528.086349  0.0017695545768669
          7737.2103487   0.013556436258096
           1760.374847   0.067162645785071
          496.87706544    0.23295905918518
          161.46520598    0.47040576982722
          55.466352268    0.35733072606876
 s    3 1.00
          107.54732999   -0.10605255446629
          12.408671897    0.62543981484169
          5.0423628826    0.44878820793655
 s    3 1.00
          8.5461640165   -0.21819012081133
          1.3900441221    0.70422525667731
         0.56066602876    0.42488555412558
 s    1 1.00
        0.071483705972                   1
 s    1 1.00
        0.028250687604                   1
 p    5 1.00
          640.48536096  0.0093555063746755
          150.69711194   0.068993338492216
          47.503755296     0.2634118959318
          16.934120165    0.51034501651775
           6.240968059    0.33195512953954
 p    3 1.00
          3.0885463206    0.32917682676976
          1.1791047769    0.55491385190365
         0.43369774432    0.23818412855984
 p    1 1.00
              0.120675                   1
 d    4 1.00
          27.559479426   0.036950140313562
          7.4687020327    0.18821519783039
          2.4345903574    0.44641244239929
         0.78244754808     0.5681617303244
 d    1 1.00
         0.21995774311                   1
 f    1 1.00
                 1.147                   1

2 0
 s    6 1.00
          51528.086349  0.0017695545768669
          7737.2103487   0.013556436258096
           1760.374847   0.067162645785071
          496.87706544    0.23295905918518
          161.46520598    0.47040576982722
          55.466352268    0.35733072606876
 s    3 1.00
          107.54732999   -0.10605255446629
          12.408671897    0.62543981484169
          5.0423628826    0.44878820793655
 s    3 1.00
          8.5461640165   -0.21819012081133
          1.3900441221    0.70422525667731
         0.56066602876    0.42488555412558
 s    1 1.00
        0.071483705972                   1
 s    1 1.00
        0.028250687604                   1
 p    5 1.00
          640.48536096  0.0093555063746755
          150.69711194   0.068993338492216
          47.503755296     0.2634118959318
          16.934120165    0.51034501651775
           6.240968059    0.33195512953954
 p    3 1.00
          3.0885463206    0.32917682676976
          1.1791047769    0.55491385190365
         0.43369774432    0.23818412855984
 p    1 1.00
              0.120675                   1
 d    4 1.00
          27.559479426   0.036950140313562
          7.4687020327    0.18821519783039
          2.4345903574    0.44641244239929
         0.78244754808     0.5681617303244
 d    1 1.00
         0.21995774311                   1
 f    1 1.00
                 1.147                   1

3 0
 s    5 1.00
          2266.1767785  -0.0053893503921743
          340.87010191   -0.04023472138896
          77.363135167   -0.18008184205526
           21.47964494   -0.46828857657651
          6.6589433124   -0.44692617160187
 s    1 1.00
         0.80975975668                   1
 s    1 1.00
         0.25530772234                   1
 p    3 1.00
          17.721504317   0.062630248763161
           3.863550544    0.33331138482352
          1.0480920883    0.74148638308122
 p    1 1.00
         0.27641544411                   1
 d    1 1.00
                   1.2                   1

4 0
 s    5 1.00
          1712.8415853  -0.0054477995804909
          257.64812677  -0.040627174632423
          58.458245853   -0.18111962250584
          16.198367905   -0.46843975563173
          5.0052600809   -0.44616846289231
 s    1 1.00
         0.58731856571                   1
 s    1 1.00
         0.18764592253                   1
 p    3 1.00
          13.571470233  -0.058848116969522
          2.9257372874   -0.32024624762471
         0.79927750754   -0.75328226520436
 p    1 1.00
         0.21954348034                   1
 d    1 1.00
                     1                   1

5 0
 s    3 1.00
             13.010701   0.033485484812989
             1.9622572    0.23472187088125
            0.44453796    0.81377028525955
 s    1 1.00
            0.12194962                   1
 p    1 1.00
                   0.8                   1

6 0
 s    3 1.00
             13.010701   0.033485484812989
             1.9622572    0.23472187088125
            0.44453796    0.81377028525955
 s    1 1.00
            0.12194962                   1
 p    1 1.00
                   0.8                   1

7 0
 s    3 1.00
             13.010701   0.033485484812989
             1.9622572    0.23472187088125
            0.44453796    0.81377028525955
 s    1 1.00
            0.12194962                   1
 p    1 1.00
                   0.8                   1

8 0
 s    5 1.00
          1712.8415853  -0.0054477995804909
          257.64812677  -0.040627174632423
          58.458245853   -0.18111962250584
          16.198367905   -0.46843975563173
          5.0052600809   -0.44616846289231
 s    1 1.00
         0.58731856571                   1
 s    1 1.00
         0.18764592253                   1
 p    3 1.00
          13.571470233  -0.058848116969522
          2.9257372874   -0.32024624762471
         0.79927750754   -0.75328226520436
 p    1 1.00
         0.21954348034                   1
 d    1 1.00
                     1                   1

9 0
 s    3 1.00
             13.010701   0.033485484812989
             1.9622572    0.23472187088125
            0.44453796    0.81377028525955
 s    1 1.00
            0.12194962                   1
 p    1 1.00
                   0.8                   1

10 0
 s    3 1.00
             13.010701   0.033485484812989
             1.9622572    0.23472187088125
            0.44453796    0.81377028525955
 s    1 1.00
            0.12194962                   1
 p    1 1.00
                   0.8                   1

11 0
 s    3 1.00
             13.010701   0.033485484812989
             1.9622572    0.23472187088125
            0.44453796    0.81377028525955
 s    1 1.00
            0.12194962                   1
 p    1 1.00
                   0.8                   1

12 0
 s    5 1.00
          1712.8415853  -0.0054477995804909
          257.64812677  -0.040627174632423
          58.458245853   -0.18111962250584
          16.198367905   -0.46843975563173
          5.0052600809   -0.44616846289231
 s    1 1.00
         0.58731856571                   1
 s    1 1.00
         0.18764592253                   1
 p    3 1.00
          13.571470233  -0.058848116969522
          2.9257372874   -0.32024624762471
         0.79927750754   -0.75328226520436
 p    1 1.00
         0.21954348034                   1
 d    1 1.00
                     1                   1

13 0
 s    3 1.00
             13.010701   0.033485484812989
             1.9622572    0.23472187088125
            0.44453796    0.81377028525955
 s    1 1.00
            0.12194962                   1
 p    1 1.00
                   0.8                   1

14 0
 s    3 1.00
             13.010701   0.033485484812989
             1.9622572    0.23472187088125
            0.44453796    0.81377028525955
 s    1 1.00
            0.12194962                   1
 p    1 1.00
                   0.8                   1

15 0
 s    3 1.00
             13.010701   0.033485484812989
             1.9622572    0.23472187088125
            0.44453796    0.81377028525955
 s    1 1.00
            0.12194962                   1
 p    1 1.00
                   0.8                   1

16 0
 s    5 1.00
          1712.8415853  -0.0054477995804909
          257.64812677  -0.040627174632423
          58.458245853   -0.18111962250584
          16.198367905   -0.46843975563173
          5.0052600809   -0.44616846289231
 s    1 1.00
         0.58731856571                   1
 s    1 1.00
         0.18764592253                   1
 p    3 1.00
          13.571470233  -0.058848116969522
          2.9257372874   -0.32024624762471
         0.79927750754   -0.75328226520436
 p    1 1.00
         0.21954348034                   1
 d    1 1.00
                     1                   1

17 0
 s    3 1.00
             13.010701   0.033485484812989
             1.9622572    0.23472187088125
            0.44453796    0.81377028525955
 s    1 1.00
            0.12194962                   1
 p    1 1.00
                   0.8                   1

18 0
 s    3 1.00
             13.010701   0.033485484812989
             1.9622572    0.23472187088125
            0.44453796    0.81377028525955
 s    1 1.00
            0.12194962                   1
 p    1 1.00
                   0.8                   1

19 0
 s    3 1.00
             13.010701   0.033485484812989
             1.9622572    0.23472187088125
            0.44453796    0.81377028525955
 s    1 1.00
            0.12194962                   1
 p    1 1.00
                   0.8                   1

20 0
 s    5 1.00
          1712.8415853  -0.0054477995804909
          257.64812677  -0.040627174632423
          58.458245853   -0.18111962250584
          16.198367905   -0.46843975563173
          5.0052600809   -0.44616846289231
 s    1 1.00
         0.58731856571                   1
 s    1 1.00
         0.18764592253                   1
 p    3 1.00
          13.571470233  -0.058848116969522
          2.9257372874   -0.32024624762471
         0.79927750754   -0.75328226520436
 p    1 1.00
         0.21954348034                   1
 d    1 1.00
                     1                   1

21 0
 s    3 1.00
             13.010701   0.033485484812989
             1.9622572    0.23472187088125
            0.44453796    0.81377028525955
 s    1 1.00
            0.12194962                   1
 p    1 1.00
                   0.8                   1

22 0
 s    3 1.00
             13.010701   0.033485484812989
             1.9622572    0.23472187088125
            0.44453796    0.81377028525955
 s    1 1.00
            0.12194962                   1
 p    1 1.00
                   0.8                   1

23 0
 s    3 1.00
             13.010701   0.033485484812989
             1.9622572    0.23472187088125
            0.44453796    0.81377028525955
 s    1 1.00
            0.12194962                   1
 p    1 1.00
                   0.8                   1

24 0
 s    5 1.00
          1712.8415853  -0.0054477995804909
          257.64812677  -0.040627174632423
          58.458245853   -0.18111962250584
          16.198367905   -0.46843975563173
          5.0052600809   -0.44616846289231
 s    1 1.00
         0.58731856571                   1
 s    1 1.00
         0.18764592253                   1
 p    3 1.00
          13.571470233  -0.058848116969522
          2.9257372874   -0.32024624762471
         0.79927750754   -0.75328226520436
 p    1 1.00
         0.21954348034                   1
 d    1 1.00
                     1                   1

25 0
 s    3 1.00
             13.010701   0.033485484812989
             1.9622572    0.23472187088125
            0.44453796    0.81377028525955
 s    1 1.00
            0.12194962                   1
 p    1 1.00
                   0.8                   1

26 0
 s    3 1.00
             13.010701   0.033485484812989
             1.9622572    0.23472187088125
            0.44453796    0.81377028525955
 s    1 1.00
            0.12194962                   1
 p    1 1.00
                   0.8                   1

27 0
 s    3 1.00
             13.010701   0.033485484812989
             1.9622572    0.23472187088125
            0.44453796    0.81377028525955
 s    1 1.00
            0.12194962                   1
 p    1 1.00
                   0.8                   1

28 0
 s    5 1.00
          1712.8415853  -0.0054477995804909
          257.64812677  -0.040627174632423
          58.458245853   -0.18111962250584
          16.198367905   -0.46843975563173
          5.0052600809   -0.44616846289231
 s    1 1.00
         0.58731856571                   1
 s    1 1.00
         0.18764592253                   1
 p    3 1.00
          13.571470233  -0.058848116969522
          2.9257372874   -0.32024624762471
         0.79927750754   -0.75328226520436
 p    1 1.00
         0.21954348034                   1
 d    1 1.00
                     1                   1

29 0
 s    3 1.00
             13.010701   0.033485484812989
             1.9622572    0.23472187088125
            0.44453796    0.81377028525955
 s    1 1.00
            0.12194962                   1
 p    1 1.00
                   0.8                   1

30 0
 s    3 1.00
             13.010701   0.033485484812989
             1.9622572    0.23472187088125
            0.44453796    0.81377028525955
 s    1 1.00
            0.12194962                   1
 p    1 1.00
                   0.8                   1

31 0
 s    3 1.00
             13.010701   0.033485484812989
             1.9622572    0.23472187088125
            0.44453796    0.81377028525955
 s    1 1.00
            0.12194962                   1
 p    1 1.00
                   0.8                   1

32 0
 s    5 1.00
          1712.8415853  -0.0054477995804909
          257.64812677  -0.040627174632423
          58.458245853   -0.18111962250584
          16.198367905   -0.46843975563173
          5.0052600809   -0.44616846289231
 s    1 1.00
         0.58731856571                   1
 s    1 1.00
         0.18764592253                   1
 p    3 1.00
          13.571470233  -0.058848116969522
          2.9257372874   -0.32024624762471
         0.79927750754   -0.75328226520436
 p    1 1.00
         0.21954348034                   1
 d    1 1.00
                     1                   1

33 0
 s    3 1.00
             13.010701   0.033485484812989
             1.9622572    0.23472187088125
            0.44453796    0.81377028525955
 s    1 1.00
            0.12194962                   1
 p    1 1.00
                   0.8                   1

34 0
 s    3 1.00
             13.010701   0.033485484812989
             1.9622572    0.23472187088125
            0.44453796    0.81377028525955
 s    1 1.00
            0.12194962                   1
 p    1 1.00
                   0.8                   1

35 0
 s    3 1.00
             13.010701   0.033485484812989
             1.9622572    0.23472187088125
            0.44453796    0.81377028525955
 s    1 1.00
            0.12194962                   1
 p    1 1.00
                   0.8                   1

36 0
 s    5 1.00
          1712.8415853  -0.0054477995804909
          257.64812677  -0.040627174632423
          58.458245853   -0.18111962250584
          16.198367905   -0.46843975563173
          5.0052600809   -0.44616846289231
 s    1 1.00
         0.58731856571                   1
 s    1 1.00
         0.18764592253                   1
 p    3 1.00
          13.571470233  -0.058848116969522
          2.9257372874   -0.32024624762471
         0.79927750754   -0.75328226520436
 p    1 1.00
         0.21954348034                   1
 d    1 1.00
                     1                   1

37 0
 s    3 1.00
             13.010701   0.033485484812989
             1.9622572    0.23472187088125
            0.44453796    0.81377028525955
 s    1 1.00
            0.12194962                   1
 p    1 1.00
                   0.8                   1

38 0
 s    3 1.00
             13.010701   0.033485484812989
             1.9622572    0.23472187088125
            0.44453796    0.81377028525955
 s    1 1.00
            0.12194962                   1
 p    1 1.00
                   0.8                   1

39 0
 s    3 1.00
             13.010701   0.033485484812989
             1.9622572    0.23472187088125
            0.44453796    0.81377028525955
 s    1 1.00
            0.12194962                   1
 p    1 1.00
                   0.8                   1

40 0
 s    5 1.00
          1712.8415853  -0.0054477995804909
          257.64812677  -0.040627174632423
          58.458245853   -0.18111962250584
          16.198367905   -0.46843975563173
          5.0052600809   -0.44616846289231
 s    1 1.00
         0.58731856571                   1
 s    1 1.00
         0.18764592253                   1
 p    3 1.00
          13.571470233  -0.058848116969522
          2.9257372874   -0.32024624762471
         0.79927750754   -0.75328226520436
 p    1 1.00
         0.21954348034                   1
 d    1 1.00
                     1                   1

41 0
 s    3 1.00
             13.010701   0.033485484812989
             1.9622572    0.23472187088125
            0.44453796    0.81377028525955
 s    1 1.00
            0.12194962                   1
 p    1 1.00
                   0.8                   1

42 0
 s    3 1.00
             13.010701   0.033485484812989
             1.9622572    0.23472187088125
            0.44453796    0.81377028525955
 s    1 1.00
            0.12194962                   1
 p    1 1.00
                   0.8                   1

43 0
 s    3 1.00
             13.010701   0.033485484812989
             1.9622572    0.23472187088125
            0.44453796    0.81377028525955
 s    1 1.00
            0.12194962                   1
 p    1 1.00
                   0.8                   1

[5d]
[7f]
[9g]

[MO]
 Sym= A
 Ene=               0
 Spin= Alpha
 Occup=    1.00000
   1    -3.2541431968801e-05
   2    5.9311000059225e-05
   3    -0.00061718110314566
   4    4.0570241985768e-05
   5    0.0001985449245361
   6    -1.8272761131984e-05
   7    0.00010814444242722
   8    4.9446761764179e-05
   9    0.00015717451607539
  10    -0.00051728997656862
  11    -0.00029702661523385
  12    7.0686713141409e-05
  13    0.00055241313597869
  14    -0.00021329246416811
  15     0.050986579733231
  16    -0.033016200616354
  17    -0.064524217933467
  18    -0.057311669081412
  19    -0.030492176389216
  20     0.041543756928013
  21    -0.026902843115295
  22    -0.052598923773853
  23    -0.046603310426808
  24    -0.024829997233814
  25    -0.00027309999455349
  26    0.0002168649554376
  27    9.7528410929081e-05
  28    -0.00012515220982616
  29    6.0612822425285e-05
  30    -0.00024640590419658
  31    0.00013851966534468
  32    3.2036138817475e-05
  33    -5.8370186191549e-05
  34    0.00060832054216229
  35    -0.00022398476558601
  36    9.1794831640273e-05
  37    -6.8428318207817e-05
  38    3.2559406238204e-05
  39    9.2882949218673e-05
  40    0.00032463877262253
  41    -0.0002575247002046
  42    -0.00044548740899821
  43    -0.00028111000860267
  44    -0.0001815881857153
  45    0.00031431417642441
  46     0.050856609909328
  47    -0.033000464664477
  48    -0.064487721695968
  49    -0.057230535814581
  50    -0.030390385619911
  51     0.041470379567222
  52    -0.026887669862833
  53    -0.052503996388433
  54    -0.046531073800311
  55    -0.024795738146884
  56    0.00026711064048241
  57    -0.00021717371051984
  58    -9.4808589051234e-05
  59    0.00012267399004198
  60    -6.8076289209817e-05
  61    0.00025178231449733
  62    -0.00013945206043342
  63    -5.4164134201594e-05
  64    -0.0012315846917369
  65    -0.00092041487704861
  66    1.1389720986539e-05
  67    2.9981727033541e-05
  68    -6.1435352004905e-06
  69    -2.5738653528931e-05
  70    8.4770666240582e-05
  71    5.5270967648635e-05
  72    0.00037857427771878
  73    -0.00023147826181114
  74    -0.0005000209041781
  75    -0.00042076986569371
  76    -0.00020818026384565
  77    -0.023991590341426
  78     -0.17346655334652
  79    -0.099777597688963
  80    -0.093118783138688
  81    -0.033688509771814
  82    -0.031634727916298
  83     0.072617992971386
  84     0.029816092657961
  85     0.024885665354991
  86    0.00013378773799133
  87    -0.00017652990900053
  88    -0.00016447156831295
  89    0.00021257215297518
  90    -0.00012867257466081
  91     -0.02077674399008
  92    0.0063386425579038
  93    0.0057903865244543
  94    3.4967099116597e-05
  95    -0.0010136871655568
  96    -0.021302818291304
  97    0.0076247318933708
  98    0.0039173889977214
  99    -0.00032815264888753
 100    0.0044644436701337
 101    -0.029365061566039
 102    0.0064277529757115
 103    0.0032061130382637
 104    0.0057594942803372
 105    0.00041404878144249
 106     0.024021003656527
 107      0.17407417207287
 108      0.09909287063089
 109    0.0062706053620163
 110     0.062549291133594
 111    -0.082892094119248
 112    -0.00098486959171943
 113    -0.052056160208594
 114     0.063672429665796
 115    -0.00016493342565745
 116    -5.471104944317e-05
 117    -0.0001995742357436
 118    -0.00014513318343412
 119    -0.0003543665121232
 120     0.032161569467995
 121    -0.0054043877531059
 122    0.0036449640510805
 123    -0.0050705797160789
 124    0.0026572809190091
 125     0.020566791480234
 126    -0.0069236430236133
 127    0.00020913307737622
 128    -0.0003611408478394
 129    0.0058345140524254
 130     0.020244774107792
 131    -0.0074873745354119
 132    -0.0035139810931869
 133    -0.0036256812390618
 134    0.0029191464255099
 135     0.023963729232896
 136      0.17375157607294
 137     0.099927301415809
 138    -0.0018645406098916
 139    -0.064064653626717
 140     0.081921825521541
 141    0.0045182174454096
 142     0.049455492145418
 143     -0.06570257582661
 144    0.00019974029673777
 145    -0.00025675475390781
 146    -6.1887231404334e-05
 147    0.00016375812810666
 148    -4.8202131011251e-05
 149     0.020846485093528
 150    -0.0064051263832654
 151    -0.00035533554351132
 152    0.0055655529358545
 153    -0.0018614035115637
 154     0.029486600381122
 155    -0.0064009493152875
 156    0.0044395984122394
 157    0.0020929512126339
 158    -0.0044702348006045
 159     0.021315371853858
 160    -0.0077651626519905
 161    -0.0028828424784431
 162    0.0014082039521795
 163    -0.0050138151562914
 164     -0.02396374387012
 165     -0.17344504982763
 166     -0.09934732083917
 167     0.091834566997884
 168     0.037503809892936
 169     0.030735363705513
 170    -0.074239874754123
 171    -0.025735334409906
 172    -0.024138023566217
 173    0.00031252518974191
 174    -5.8357227116506e-05
 175    8.314468190743e-06
 176    -0.0001785834253343
 177    0.00021355236430388
 178    -0.020646620686173
 179    0.0075457098096959
 180    -0.0042433231674459
 181    -0.0037953466633826
 182    0.0013838054440514
 183    -0.020604689202553
 184    0.0066265828995321
 185    -0.0029507731192666
 186    -0.002907488976466
 187    -0.0041431741637815
 188    -0.030918825041828
 189    0.0056863818150178
 190    -0.0059006783544387
 191    0.0024993258874009
 192    -0.0020089485686018
 193    -8.0740390283518e-05
 194    -0.00061397227801449
 195    -0.00027895829114753
 196    -0.0020896566841457
 197    -0.0023328390802532
 198    0.0019577893365016
 199    0.00023293452783224
 200    0.00016074563529959
 201    -0.00035621810084677
 202    0.00031240114439336
 203    -0.00024346101475475
 204    -0.00032361618747254
 205    -0.00018186709496701
 206    -0.00015882123521548
 207    0.0038492716572854
 208    0.0015441345980812
 209    -0.00036585717335869
 210    0.00035837748188479
 211    0.00019458969978198
 212    -0.0034848358464801
 213    -0.0013169958078757
 214    0.00028528325574086
 215    -0.00044222484480155
 216    -0.00011447002797542
 217    -0.00063903315620968
 218    -0.00017731769343661
 219    -0.00014655070459756
 220    -0.00027454630453905
 221    9.0586119426748e-05
 222    -0.023882438756022
 223     -0.17310432946421
 224    -0.099270724140122
 225      0.09294901915627
 226     0.033339718924162
 227     0.031281513981946
 228    -0.072261145076429
 229    -0.029931830071968
 230     -0.02465612367903
 231    0.00015134865689002
 232    -0.00018018148833422
 233    -0.00019280010091353
 234    0.0002284012140763
 235    -0.00011669985246965
 236    -0.030015754823852
 237    0.0062211098228097
 238    -0.0031032476990622
 239    -0.0058329194116868
 240    -0.00067742827416116
 241    -0.020824758975083
 242    0.0075342521992871
 243    -0.0040019013363882
 244    0.00048164385362518
 245    -0.0043061210308613
 246    -0.020682046319296
 247    0.0064690600972365
 248    -0.0057333433064175
 249    -0.00019572363556222
 250    0.0011536443597396
 251     0.023997994843777
 252      0.17375731348448
 253     0.099307072908627
 254    -0.0059990747279501
 255    -0.062466536766317
 256     0.082893584130995
 257    0.00099105487972485
 258     0.051691864304335
 259    -0.063980141210339
 260    -0.00018210025325582
 261    -3.6790761176155e-05
 262    -0.00022341608740709
 263    -0.00011066317776696
 264    -0.00031699406761959
 265     0.020268362471865
 266    -0.0068730658091313
 267    1.0770597423455e-05
 268    0.00038284726985443
 269    -0.0058117316700851
 270     0.031500303894386
 271    -0.0055687251258501
 272    -0.0038051698502843
 273    0.0047899759771873
 274    -0.0028509653562765
 275     0.020756968055318
 276    -0.0074368951065837
 277    0.0034713949596633
 278    0.0038228145138012
 279    -0.0027912396258319
 280    -0.023890172176036
 281     -0.17319383788589
 282    -0.098867560871246
 283    -0.091549029297717
 284    -0.037690834405593
 285    -0.030398592795483
 286      0.07415027826181
 287     0.025532580096124
 288     0.023758210627897
 289    0.00032051083889619
 290    -5.6242459472487e-05
 291    -2.8411190148843e-05
 292    -0.0001802483361756
 293    0.00023486047361565
 294    -0.020773263148427
 295    0.0066450727852522
 296    0.0029543663570085
 297    0.0027798224480073
 298    0.0042300538306532
 299    -0.020051918962985
 300    0.0075713864476153
 301    0.0041340705116589
 302    0.0038681163536934
 303    -0.0012676071043317
 304    -0.031433301550426
 305    0.0054809758884344
 306    0.0059993710408074
 307    -0.0025178314735053
 308    0.0017683206968811
 309     0.024048595567493
 310      0.17376252673878
 311      0.10027132438779
 312    0.0020418017357923
 313     0.063805874233066
 314    -0.082292695307332
 315    -0.0042663199623899
 316    -0.049481942731278
 317     0.065887675750561
 318    0.00018990126533075
 319    -0.0002315568332613
 320    -6.335900613985e-05
 321    0.00015125514561136
 322    -2.4983120745999e-05
 323     0.020950768661275
 324    -0.0062306812615324
 325    0.00055424259922386
 326    -0.0055481046659047
 327    0.0019179243172822
 328     0.021755706652639
 329    -0.0078949268327809
 330    0.0027912646774397
 331    -0.0012527277816877
 332    0.0051401907069705
 333     0.028700952911257
 334    -0.0066319378622993
 335    -0.0044266869900071
 336     -0.00229698922453
 337    0.0042852724275398
 338    -5.4787487045166e-05
 339    -0.00042426421454232
 340    -0.00019890584587514
 341    0.0021177689280245
 342    0.0021778188589418