[Molden Format]
made by pyscf v[2.1.1]
[Atoms] (AU)
Cr   1   24     1.56143912275337    -2.46507591990239    -1.82404491365355
Cr   2   24    -1.56139565905251     2.46513072196000     1.82399011159594
O   3   8     0.00002078698737     0.00002834589187    -0.00002645616574
N   4   7     5.12832174930954    -1.10581670549011    -0.60767356069801
H   5   1     6.65216855026694    -1.66292686427314    -1.66487895135981
H   6   1     5.63710405218294    -1.59213394419468     1.18765885421890
H   7   1     5.20084187906585     0.81566059741989    -0.65509245834172
N   8   7     1.71230729763415    -0.02251608677419    -4.99594076510539
H   9   1     0.29795878723855     1.27247165241550    -4.90823668593820
H   10   1     1.50271021425414    -0.85583806455427    -6.73026148236459
H   11   1     3.34039895052705     0.99863710888315    -5.18656310846864
N   12   7     1.41057094787259    -4.90763575303059     1.34785282752440
H   13   1     1.64193389675534    -6.79355407945465     0.97314659318890
H   14   1    -0.29048681014202    -4.81040367474334     2.24006056107205
H   15   1     2.72468082571676    -4.56691435331926     2.71738081369757
N   16   7    -2.00544350380280    -3.82433513431467    -3.04041437688297
H   17   1    -2.87205678671934    -5.05516478184926    -1.83221042023780
H   18   1    -2.03637832046193    -4.76397121413665    -4.73247136936628
H   19   1    -3.24475802163669    -2.37551046050250    -3.28123540501917
N   20   7     3.37923471211299    -5.33493873459111    -3.94755661599306
H   21   1     4.17102617885350    -4.76109883042731    -5.61685374703210
H   22   1     2.26176595533881    -6.82326057413281    -4.47610923358166
H   23   1     4.85383336053810    -6.19899521806112    -3.03922195969837
N   24   7    -5.12827828560868     1.10587339727385     0.60762064836653
H   25   1    -5.15408816501799    -0.81544705836782     0.54662784797006
H   26   1    -5.69743166898356     1.68113626520945    -1.14337690194197
H   27   1    -6.63528195761783     1.56841410187914     1.73267665553083
N   28   7    -1.71226383393328     0.02257088883181     4.99588785277390
H   29   1    -1.62991523860311     0.86667375415253     6.73575491620870
H   30   1    -0.22416876152653    -1.19157625647512     4.98456461383551
H   31   1    -3.28782110056328    -1.08746368536834     5.11339858210385
N   32   7     2.00548696750367     3.82438993637228     3.04035957482536
H   33   1     2.05186651577887     4.68410571893416     4.77402266739321
H   34   1     2.83712330958063     5.12208376337235     1.87805706574587
H   35   1     3.26582090902109     2.38241174030942     3.19051154350492
N   36   7    -1.41052748417173     4.90769055508820    -1.34790762958202
H   37   1    -1.75003190025884     6.78104976168840    -0.99229329828299
H   38   1    -2.65834387984003     4.49309409198925    -2.75785496783350
H   39   1     0.32278033988471     4.89894112313146    -2.18344058692784
N   40   7    -3.37919124841212     5.33499353664873     3.94750181393545
H   41   1    -2.26357064378777     6.83195331430581     4.45515784003860
H   42   1    -4.15358022727151     4.76963661305810     5.62761006813313
H   43   1    -4.86681766873998     6.18449345978121     3.04686590187224
[GTO]
1 0
 s    6 1.00
          51528.086349  0.0017695545768669
          7737.2103487   0.013556436258096
           1760.374847   0.067162645785071
          496.87706544    0.23295905918518
          161.46520598    0.47040576982722
          55.466352268    0.35733072606876
 s    3 1.00
          107.54732999   -0.10605255446629
          12.408671897    0.62543981484169
          5.0423628826    0.44878820793655
 s    3 1.00
          8.5461640165   -0.21819012081133
          1.3900441221    0.70422525667731
         0.56066602876    0.42488555412558
 s    1 1.00
        0.071483705972                   1
 s    1 1.00
        0.028250687604                   1
 p    5 1.00
          640.48536096  0.0093555063746755
          150.69711194   0.068993338492216
          47.503755296     0.2634118959318
          16.934120165    0.51034501651775
           6.240968059    0.33195512953954
 p    3 1.00
          3.0885463206    0.32917682676976
          1.1791047769    0.55491385190365
         0.43369774432    0.23818412855984
 p    1 1.00
              0.120675                   1
 d    4 1.00
          27.559479426   0.036950140313562
          7.4687020327    0.18821519783039
          2.4345903574    0.44641244239929
         0.78244754808     0.5681617303244
 d    1 1.00
         0.21995774311                   1
 f    1 1.00
                 1.147                   1

2 0
 s    6 1.00
          51528.086349  0.0017695545768669
          7737.2103487   0.013556436258096
           1760.374847   0.067162645785071
          496.87706544    0.23295905918518
          161.46520598    0.47040576982722
          55.466352268    0.35733072606876
 s    3 1.00
          107.54732999   -0.10605255446629
          12.408671897    0.62543981484169
          5.0423628826    0.44878820793655
 s    3 1.00
          8.5461640165   -0.21819012081133
          1.3900441221    0.70422525667731
         0.56066602876    0.42488555412558
 s    1 1.00
        0.071483705972                   1
 s    1 1.00
        0.028250687604                   1
 p    5 1.00
          640.48536096  0.0093555063746755
          150.69711194   0.068993338492216
          47.503755296     0.2634118959318
          16.934120165    0.51034501651775
           6.240968059    0.33195512953954
 p    3 1.00
          3.0885463206    0.32917682676976
          1.1791047769    0.55491385190365
         0.43369774432    0.23818412855984
 p    1 1.00
              0.120675                   1
 d    4 1.00
          27.559479426   0.036950140313562
          7.4687020327    0.18821519783039
          2.4345903574    0.44641244239929
         0.78244754808     0.5681617303244
 d    1 1.00
         0.21995774311                   1
 f    1 1.00
                 1.147                   1

3 0
 s    5 1.00
          2266.1767785  -0.0053893503921743
          340.87010191   -0.04023472138896
          77.363135167   -0.18008184205526
           21.47964494   -0.46828857657651
          6.6589433124   -0.44692617160187
 s    1 1.00
         0.80975975668                   1
 s    1 1.00
         0.25530772234                   1
 p    3 1.00
          17.721504317   0.062630248763161
           3.863550544    0.33331138482352
          1.0480920883    0.74148638308122
 p    1 1.00
         0.27641544411                   1
 d    1 1.00
                   1.2                   1

4 0
 s    5 1.00
          1712.8415853  -0.0054477995804909
          257.64812677  -0.040627174632423
          58.458245853   -0.18111962250584
          16.198367905   -0.46843975563173
          5.0052600809   -0.44616846289231
 s    1 1.00
         0.58731856571                   1
 s    1 1.00
         0.18764592253                   1
 p    3 1.00
          13.571470233  -0.058848116969522
          2.9257372874   -0.32024624762471
         0.79927750754   -0.75328226520436
 p    1 1.00
         0.21954348034                   1
 d    1 1.00
                     1                   1

5 0
 s    3 1.00
             13.010701   0.033485484812989
             1.9622572    0.23472187088125
            0.44453796    0.81377028525955
 s    1 1.00
            0.12194962                   1
 p    1 1.00
                   0.8                   1

6 0
 s    3 1.00
             13.010701   0.033485484812989
             1.9622572    0.23472187088125
            0.44453796    0.81377028525955
 s    1 1.00
            0.12194962                   1
 p    1 1.00
                   0.8                   1

7 0
 s    3 1.00
             13.010701   0.033485484812989
             1.9622572    0.23472187088125
            0.44453796    0.81377028525955
 s    1 1.00
            0.12194962                   1
 p    1 1.00
                   0.8                   1

8 0
 s    5 1.00
          1712.8415853  -0.0054477995804909
          257.64812677  -0.040627174632423
          58.458245853   -0.18111962250584
          16.198367905   -0.46843975563173
          5.0052600809   -0.44616846289231
 s    1 1.00
         0.58731856571                   1
 s    1 1.00
         0.18764592253                   1
 p    3 1.00
          13.571470233  -0.058848116969522
          2.9257372874   -0.32024624762471
         0.79927750754   -0.75328226520436
 p    1 1.00
         0.21954348034                   1
 d    1 1.00
                     1                   1

9 0
 s    3 1.00
             13.010701   0.033485484812989
             1.9622572    0.23472187088125
            0.44453796    0.81377028525955
 s    1 1.00
            0.12194962                   1
 p    1 1.00
                   0.8                   1

10 0
 s    3 1.00
             13.010701   0.033485484812989
             1.9622572    0.23472187088125
            0.44453796    0.81377028525955
 s    1 1.00
            0.12194962                   1
 p    1 1.00
                   0.8                   1

11 0
 s    3 1.00
             13.010701   0.033485484812989
             1.9622572    0.23472187088125
            0.44453796    0.81377028525955
 s    1 1.00
            0.12194962                   1
 p    1 1.00
                   0.8                   1

12 0
 s    5 1.00
          1712.8415853  -0.0054477995804909
          257.64812677  -0.040627174632423
          58.458245853   -0.18111962250584
          16.198367905   -0.46843975563173
          5.0052600809   -0.44616846289231
 s    1 1.00
         0.58731856571                   1
 s    1 1.00
         0.18764592253                   1
 p    3 1.00
          13.571470233  -0.058848116969522
          2.9257372874   -0.32024624762471
         0.79927750754   -0.75328226520436
 p    1 1.00
         0.21954348034                   1
 d    1 1.00
                     1                   1

13 0
 s    3 1.00
             13.010701   0.033485484812989
             1.9622572    0.23472187088125
            0.44453796    0.81377028525955
 s    1 1.00
            0.12194962                   1
 p    1 1.00
                   0.8                   1

14 0
 s    3 1.00
             13.010701   0.033485484812989
             1.9622572    0.23472187088125
            0.44453796    0.81377028525955
 s    1 1.00
            0.12194962                   1
 p    1 1.00
                   0.8                   1

15 0
 s    3 1.00
             13.010701   0.033485484812989
             1.9622572    0.23472187088125
            0.44453796    0.81377028525955
 s    1 1.00
            0.12194962                   1
 p    1 1.00
                   0.8                   1

16 0
 s    5 1.00
          1712.8415853  -0.0054477995804909
          257.64812677  -0.040627174632423
          58.458245853   -0.18111962250584
          16.198367905   -0.46843975563173
          5.0052600809   -0.44616846289231
 s    1 1.00
         0.58731856571                   1
 s    1 1.00
         0.18764592253                   1
 p    3 1.00
          13.571470233  -0.058848116969522
          2.9257372874   -0.32024624762471
         0.79927750754   -0.75328226520436
 p    1 1.00
         0.21954348034                   1
 d    1 1.00
                     1                   1

17 0
 s    3 1.00
             13.010701   0.033485484812989
             1.9622572    0.23472187088125
            0.44453796    0.81377028525955
 s    1 1.00
            0.12194962                   1
 p    1 1.00
                   0.8                   1

18 0
 s    3 1.00
             13.010701   0.033485484812989
             1.9622572    0.23472187088125
            0.44453796    0.81377028525955
 s    1 1.00
            0.12194962                   1
 p    1 1.00
                   0.8                   1

19 0
 s    3 1.00
             13.010701   0.033485484812989
             1.9622572    0.23472187088125
            0.44453796    0.81377028525955
 s    1 1.00
            0.12194962                   1
 p    1 1.00
                   0.8                   1

20 0
 s    5 1.00
          1712.8415853  -0.0054477995804909
          257.64812677  -0.040627174632423
          58.458245853   -0.18111962250584
          16.198367905   -0.46843975563173
          5.0052600809   -0.44616846289231
 s    1 1.00
         0.58731856571                   1
 s    1 1.00
         0.18764592253                   1
 p    3 1.00
          13.571470233  -0.058848116969522
          2.9257372874   -0.32024624762471
         0.79927750754   -0.75328226520436
 p    1 1.00
         0.21954348034                   1
 d    1 1.00
                     1                   1

21 0
 s    3 1.00
             13.010701   0.033485484812989
             1.9622572    0.23472187088125
            0.44453796    0.81377028525955
 s    1 1.00
            0.12194962                   1
 p    1 1.00
                   0.8                   1

22 0
 s    3 1.00
             13.010701   0.033485484812989
             1.9622572    0.23472187088125
            0.44453796    0.81377028525955
 s    1 1.00
            0.12194962                   1
 p    1 1.00
                   0.8                   1

23 0
 s    3 1.00
             13.010701   0.033485484812989
             1.9622572    0.23472187088125
            0.44453796    0.81377028525955
 s    1 1.00
            0.12194962                   1
 p    1 1.00
                   0.8                   1

24 0
 s    5 1.00
          1712.8415853  -0.0054477995804909
          257.64812677  -0.040627174632423
          58.458245853   -0.18111962250584
          16.198367905   -0.46843975563173
          5.0052600809   -0.44616846289231
 s    1 1.00
         0.58731856571                   1
 s    1 1.00
         0.18764592253                   1
 p    3 1.00
          13.571470233  -0.058848116969522
          2.9257372874   -0.32024624762471
         0.79927750754   -0.75328226520436
 p    1 1.00
         0.21954348034                   1
 d    1 1.00
                     1                   1

25 0
 s    3 1.00
             13.010701   0.033485484812989
             1.9622572    0.23472187088125
            0.44453796    0.81377028525955
 s    1 1.00
            0.12194962                   1
 p    1 1.00
                   0.8                   1

26 0
 s    3 1.00
             13.010701   0.033485484812989
             1.9622572    0.23472187088125
            0.44453796    0.81377028525955
 s    1 1.00
            0.12194962                   1
 p    1 1.00
                   0.8                   1

27 0
 s    3 1.00
             13.010701   0.033485484812989
             1.9622572    0.23472187088125
            0.44453796    0.81377028525955
 s    1 1.00
            0.12194962                   1
 p    1 1.00
                   0.8                   1

28 0
 s    5 1.00
          1712.8415853  -0.0054477995804909
          257.64812677  -0.040627174632423
          58.458245853   -0.18111962250584
          16.198367905   -0.46843975563173
          5.0052600809   -0.44616846289231
 s    1 1.00
         0.58731856571                   1
 s    1 1.00
         0.18764592253                   1
 p    3 1.00
          13.571470233  -0.058848116969522
          2.9257372874   -0.32024624762471
         0.79927750754   -0.75328226520436
 p    1 1.00
         0.21954348034                   1
 d    1 1.00
                     1                   1

29 0
 s    3 1.00
             13.010701   0.033485484812989
             1.9622572    0.23472187088125
            0.44453796    0.81377028525955
 s    1 1.00
            0.12194962                   1
 p    1 1.00
                   0.8                   1

30 0
 s    3 1.00
             13.010701   0.033485484812989
             1.9622572    0.23472187088125
            0.44453796    0.81377028525955
 s    1 1.00
            0.12194962                   1
 p    1 1.00
                   0.8                   1

31 0
 s    3 1.00
             13.010701   0.033485484812989
             1.9622572    0.23472187088125
            0.44453796    0.81377028525955
 s    1 1.00
            0.12194962                   1
 p    1 1.00
                   0.8                   1

32 0
 s    5 1.00
          1712.8415853  -0.0054477995804909
          257.64812677  -0.040627174632423
          58.458245853   -0.18111962250584
          16.198367905   -0.46843975563173
          5.0052600809   -0.44616846289231
 s    1 1.00
         0.58731856571                   1
 s    1 1.00
         0.18764592253                   1
 p    3 1.00
          13.571470233  -0.058848116969522
          2.9257372874   -0.32024624762471
         0.79927750754   -0.75328226520436
 p    1 1.00
         0.21954348034                   1
 d    1 1.00
                     1                   1

33 0
 s    3 1.00
             13.010701   0.033485484812989
             1.9622572    0.23472187088125
            0.44453796    0.81377028525955
 s    1 1.00
            0.12194962                   1
 p    1 1.00
                   0.8                   1

34 0
 s    3 1.00
             13.010701   0.033485484812989
             1.9622572    0.23472187088125
            0.44453796    0.81377028525955
 s    1 1.00
            0.12194962                   1
 p    1 1.00
                   0.8                   1

35 0
 s    3 1.00
             13.010701   0.033485484812989
             1.9622572    0.23472187088125
            0.44453796    0.81377028525955
 s    1 1.00
            0.12194962                   1
 p    1 1.00
                   0.8                   1

36 0
 s    5 1.00
          1712.8415853  -0.0054477995804909
          257.64812677  -0.040627174632423
          58.458245853   -0.18111962250584
          16.198367905   -0.46843975563173
          5.0052600809   -0.44616846289231
 s    1 1.00
         0.58731856571                   1
 s    1 1.00
         0.18764592253                   1
 p    3 1.00
          13.571470233  -0.058848116969522
          2.9257372874   -0.32024624762471
         0.79927750754   -0.75328226520436
 p    1 1.00
         0.21954348034                   1
 d    1 1.00
                     1                   1

37 0
 s    3 1.00
             13.010701   0.033485484812989
             1.9622572    0.23472187088125
            0.44453796    0.81377028525955
 s    1 1.00
            0.12194962                   1
 p    1 1.00
                   0.8                   1

38 0
 s    3 1.00
             13.010701   0.033485484812989
             1.9622572    0.23472187088125
            0.44453796    0.81377028525955
 s    1 1.00
            0.12194962                   1
 p    1 1.00
                   0.8                   1

39 0
 s    3 1.00
             13.010701   0.033485484812989
             1.9622572    0.23472187088125
            0.44453796    0.81377028525955
 s    1 1.00
            0.12194962                   1
 p    1 1.00
                   0.8                   1

40 0
 s    5 1.00
          1712.8415853  -0.0054477995804909
          257.64812677  -0.040627174632423
          58.458245853   -0.18111962250584
          16.198367905   -0.46843975563173
          5.0052600809   -0.44616846289231
 s    1 1.00
         0.58731856571                   1
 s    1 1.00
         0.18764592253                   1
 p    3 1.00
          13.571470233  -0.058848116969522
          2.9257372874   -0.32024624762471
         0.79927750754   -0.75328226520436
 p    1 1.00
         0.21954348034                   1
 d    1 1.00
                     1                   1

41 0
 s    3 1.00
             13.010701   0.033485484812989
             1.9622572    0.23472187088125
            0.44453796    0.81377028525955
 s    1 1.00
            0.12194962                   1
 p    1 1.00
                   0.8                   1

42 0
 s    3 1.00
             13.010701   0.033485484812989
             1.9622572    0.23472187088125
            0.44453796    0.81377028525955
 s    1 1.00
            0.12194962                   1
 p    1 1.00
                   0.8                   1

43 0
 s    3 1.00
             13.010701   0.033485484812989
             1.9622572    0.23472187088125
            0.44453796    0.81377028525955
 s    1 1.00
            0.12194962                   1
 p    1 1.00
                   0.8                   1

[5d]
[7f]
[9g]

[MO]
 Sym= A
 Ene=               0
 Spin= Alpha
 Occup=    1.00000
   1    -0.011397846636267
   2     0.021343029511063
   3     -0.21239178376576
   4    -0.0063119299699335
   5    0.0077492304486285
   6    -0.017748918321981
   7     0.027834621470411
   8     0.019478743592773
   9     0.093932263829058
  10     -0.14746556560027
  11     -0.10419967571719
  12    -0.0094998845078407
  13     0.014931029147463
  14     0.014439038367716
  15    -0.033747083401953
  16     0.039450899950175
  17     0.020908483793101
  18      0.05124409717586
  19      0.04306445084732
  20    -0.026160836402042
  21      0.04088118692501
  22    0.0044827326611946
  23     0.047479192852777
  24      0.04699135305688
  25    -0.0013072846357618
  26    -0.00058132550968799
  27    0.00049313726170531
  28    -0.0010435814234839
  29    -0.0024299204709822
  30      0.00194031236065
  31    0.00012563957596211
  32     0.011403344472489
  33    -0.021356699349149
  34      0.21247119097009
  35    0.0062857473307822
  36    -0.0080347446176912
  37    -0.017753876801963
  38     0.027836892575337
  39     0.019485060500668
  40     0.093947741801115
  41     -0.14747205886279
  42     -0.10422013968478
  43    -0.0095598184743121
  44      0.01497592664852
  45     0.014519124177109
  46     0.033731625287673
  47    -0.039735214776331
  48    -0.020632140297216
  49    -0.051416815675067
  50     -0.04334265903244
  51     0.026167112241676
  52    -0.041121739305692
  53    -0.0042177346799449
  54      -0.0476700805234
  55    -0.047263863270884
  56    -0.0013067996330798
  57    -0.0005850896249077
  58    0.00049364427719951
  59    -0.0010412446300226
  60    -0.0024346280776549
  61    0.0019482253214694
  62    0.00012316164087622
  63    0.00027114882082176
  64    0.00037206487720491
  65    0.00012752694545099
  66    0.00022535653659487
  67    -0.001418242469689
  68    -0.00066781872423641
  69     0.019055854001087
  70    -0.031163256514669
  71    -0.023668945914686
  72    -2.6791578852387e-06
  73    -2.5496535552355e-06
  74    7.1383815779977e-06
  75    -2.1174584420796e-06
  76    -3.3561282542192e-06
  77     0.015117096549789
  78      0.17940910128111
  79     0.092067219488651
  80     0.073144162871041
  81     0.044738023884034
  82     0.034513701684014
  83    -0.054558874660572
  84    -0.035795979984284
  85     -0.02825783890554
  86    0.00012284962752121
  87    -0.00067859269891315
  88    1.0137628010594e-05
  89    0.00072260072906593
  90    -0.00058341146243038
  91     0.037990883648216
  92    -0.004593320169157
  93    -0.0067876601128793
  94    0.00038598816097864
  95    0.0019543443152721
  96     0.027408174217467
  97    -0.0057685074189971
  98    -0.0041726000483183
  99    -1.5225786458067e-05
 100    -0.0053436880909874
 101     0.021839389861961
 102    -0.008983090039737
 103    -0.0027972901931569
 104    -0.0054535718485009
 105    -0.00076835401574001
 106    -0.019103681964138
 107    -0.071856631703852
 108    -0.050636650260829
 109    -0.011860960185109
 110    -0.031004013793774
 111     0.055560121239515
 112    0.0054649596016061
 113     0.026478031276016
 114    -0.042100393766737
 115    0.00060443507876596
 116    2.9146324419415e-06
 117    0.00065172970488751
 118    0.00043729553580778
 119    0.00093051411913745
 120    -0.018669853847559
 121    0.0027084279285976
 122    -0.0015529584892617
 123    0.0022754542014024
 124    -0.0012515703388563
 125    0.0039833846368114
 126     0.004941081996556
 127    0.00013684260827131
 128    0.0010879883418255
 129    -0.0016312247159896
 130    0.0015990023379745
 131    0.0054071115512863
 132    0.00074027728257459
 133    0.00081292261892702
 134    -0.0014078308482648
 135    -0.016531190346092
 136    -0.064354733669552
 137    -0.045603304919742
 138    -0.0067072558455123
 139     0.043385099484367
 140    -0.039618296829222
 141    0.0022707735924029
 142    -0.033114907973392
 143     0.032850174828957
 144    -0.0007082167584539
 145    0.00068936313194268
 146    0.00032285624086109
 147    -0.00068902320893929
 148    -6.1884833565231e-05
 149    0.0064902842656028
 150    0.0043960392588085
 151    -2.2844487338463e-05
 152    -0.00094862666087387
 153    0.0014063448404209
 154    -0.015157716815431
 155    0.0023314317238558
 156    -0.0017666467235218
 157    -0.0010813909514788
 158     0.001688043167132
 159    -0.0018011239840204
 160    0.0039089415466511
 161    0.00099182331692182
 162    -0.00096042480906095
 163    0.0012951231838169
 164     0.013804544608332
 165      0.17541889965131
 166     0.090341977126821
 167    -0.085160313513151
 168    -0.016957044563315
 169    -0.020951102499572
 170     0.066447356103173
 171     0.011252004890869
 172     0.013676809479721
 173    0.00070106899535961
 174    -6.5108227417684e-05
 175    0.00050698010234777
 176    -0.00046572391141411
 177    0.00045166872923269
 178     0.029266458784652
 179    -0.0053935868711401
 180    0.0049565035964176
 181    0.0041330968338759
 182    -0.001977595908927
 183     0.035031074327625
 184    -0.004470875475868
 185    0.0026990383661308
 186    0.0033299417925393
 187    0.0052401740412966
 188     0.022023190280568
 189    -0.0092082975227695
 190    0.0053580450344838
 191    -0.0024144402877025
 192    0.0015107653297485
 193    -0.023425188910739
 194     -0.18454510984056
 195     -0.10940477478748
 196    -0.048540843022856
 197     0.078345483292362
 198     0.050657215999053
 199     0.042921888485658
 200    -0.066241471115867
 201    -0.046117060963889
 202    -0.00030209678599535
 203    0.00032557366892175
 204    0.00010028498781464
 205    0.00021500227576746
 206    9.1231758169375e-05
 207    -0.030906898266091
 208    0.0041618689141207
 209    0.0036159466116661
 210    -0.00077007422202731
 211    -0.005764379387377
 212    -0.024168332377911
 213    0.0064336043073962
 214    -0.0017021618172828
 215    -0.0053629079618283
 216    -0.0025373038115013
 217    -0.023123898770353
 218    0.0065959345707368
 219    0.0047221245789047
 220    -0.0036954468670246
 221    0.00071241293987496
 222    -0.015188272913013
 223     -0.17998863035499
 224    -0.092676603690527
 225      0.07332007619172
 226     0.045414193470748
 227     0.034450078141624
 228    -0.054659709801215
 229    -0.036223753382266
 230    -0.028155261509571
 231    -0.00022156039525014
 232    0.00067107041453881
 233    7.2465491643037e-05
 234    -0.00076688493768318
 235    0.00053882446803137
 236    -0.021317549590882
 237     0.009423460119814
 238    -0.0026703865453564
 239    -0.0054420776365264
 240    -0.001013296959787
 241    -0.028248786115693
 242    0.0057167186494201
 243    -0.004355034697115
 244    0.00019784790437322
 245    -0.0052602839824284
 246     -0.03789393066031
 247    0.0047039646553965
 248    -0.0067502768215659
 249    0.0001224603159477
 250    0.0021319566308657
 251     0.019038741192411
 252     0.071469953332409
 253     0.050251629948611
 254     -0.01133089977874
 255    -0.031446118819792
 256     0.054828551242589
 257    0.0052017562436796
 258     0.026521570984521
 259    -0.041753137948773
 260    -0.00060463806404459
 261    5.0892168477448e-05
 262    -0.0006962697956894
 263    -0.00035238944653764
 264    -0.00083707873047632
 265    -0.0039854437181511
 266    -0.0048461297780238
 267    0.00012293206126974
 268    0.0011476133583017
 269    -0.0016275490056418
 270     0.017538450971247
 271    -0.0026900107218036
 272    -0.001573489619946
 273    0.0020982563165515
 274    -0.0013621042662413
 275    -0.00065006059600628
 276    -0.0053253273316686
 277    0.00081225716203633
 278    0.00086469671174042
 279    -0.0013947749577807
 280    -0.013878588573262
 281     -0.17603322011026
 282    -0.090776241711453
 283    -0.085672253132711
 284    -0.016851285039038
 285    -0.020764035633062
 286     0.066799499433702
 287     0.011111231260716
 288     0.013553873480948
 289    -0.0007457976976275
 290    4.8132386278487e-05
 291    -0.00044564632662227
 292    0.00046805994564378
 293    -0.00049985502237864
 294    -0.035066058853515
 295     0.004555784591964
 296    0.0027539957525509
 297    0.0031425375710109
 298    0.0053471528841807
 299     -0.02964173712822
 300    0.0054207509118052
 301    0.0048844130898447
 302      0.00430728785248
 303    -0.0018574438313658
 304    -0.021890644917995
 305    0.0094123219985352
 306    0.0054272557955247
 307    -0.0024271934809063
 308    0.0012849687351368
 309     0.016481103498499
 310     0.063974651813692
 311     0.045350709240738
 312    -0.0063043714598967
 313     0.042925157289139
 314    -0.039611861915586
 315    0.0022205136006624
 316    -0.032896195806864
 317     0.032759993203812
 318    0.00071122640427131
 319    -0.00059994393006062
 320    -0.00032585282262528
 321    0.00067584271737469
 322    0.00015038239870284
 323    -0.0065437318243909
 324    -0.0042849007511902
 325    -3.6669919773634e-05
 326    -0.00093605288375345
 327    0.0014308213608767
 328    0.0027533398145681
 329    -0.0038632145434525
 330    0.0010323647768334
 331    -0.00090061992207222
 332    0.0013726559723434
 333     0.014025119620622
 334     -0.00241321998552
 335    -0.0017090777520833
 336    -0.0011861126983979
 337    0.0015655423693145
 338     0.023579913211066
 339      0.18565093346175
 340      0.11001414870167
 341    -0.048855728881642
 342     0.078867607604613
 343     0.050911750943222
 344     0.043079966186451
 345    -0.066686906668192