[Molden Format]
made by pyscf v[2.1.1]
[Atoms] (AU)
Cr   1   24     1.56143912275337    -2.46507591990239    -1.82404491365355
Cr   2   24    -1.56139565905251     2.46513072196000     1.82399011159594
O   3   8     0.00002078698737     0.00002834589187    -0.00002645616574
N   4   7     5.12832174930954    -1.10581670549011    -0.60767356069801
H   5   1     6.65216855026694    -1.66292686427314    -1.66487895135981
H   6   1     5.63710405218294    -1.59213394419468     1.18765885421890
H   7   1     5.20084187906585     0.81566059741989    -0.65509245834172
N   8   7     1.71230729763415    -0.02251608677419    -4.99594076510539
H   9   1     0.29795878723855     1.27247165241550    -4.90823668593820
H   10   1     1.50271021425414    -0.85583806455427    -6.73026148236459
H   11   1     3.34039895052705     0.99863710888315    -5.18656310846864
N   12   7     1.41057094787259    -4.90763575303059     1.34785282752440
H   13   1     1.64193389675534    -6.79355407945465     0.97314659318890
H   14   1    -0.29048681014202    -4.81040367474334     2.24006056107205
H   15   1     2.72468082571676    -4.56691435331926     2.71738081369757
N   16   7    -2.00544350380280    -3.82433513431467    -3.04041437688297
H   17   1    -2.87205678671934    -5.05516478184926    -1.83221042023780
H   18   1    -2.03637832046193    -4.76397121413665    -4.73247136936628
H   19   1    -3.24475802163669    -2.37551046050250    -3.28123540501917
N   20   7     3.37923471211299    -5.33493873459111    -3.94755661599306
H   21   1     4.17102617885350    -4.76109883042731    -5.61685374703210
H   22   1     2.26176595533881    -6.82326057413281    -4.47610923358166
H   23   1     4.85383336053810    -6.19899521806112    -3.03922195969837
N   24   7    -5.12827828560868     1.10587339727385     0.60762064836653
H   25   1    -5.15408816501799    -0.81544705836782     0.54662784797006
H   26   1    -5.69743166898356     1.68113626520945    -1.14337690194197
H   27   1    -6.63528195761783     1.56841410187914     1.73267665553083
N   28   7    -1.71226383393328     0.02257088883181     4.99588785277390
H   29   1    -1.62991523860311     0.86667375415253     6.73575491620870
H   30   1    -0.22416876152653    -1.19157625647512     4.98456461383551
H   31   1    -3.28782110056328    -1.08746368536834     5.11339858210385
N   32   7     2.00548696750367     3.82438993637228     3.04035957482536
H   33   1     2.05186651577887     4.68410571893416     4.77402266739321
H   34   1     2.83712330958063     5.12208376337235     1.87805706574587
H   35   1     3.26582090902109     2.38241174030942     3.19051154350492
N   36   7    -1.41052748417173     4.90769055508820    -1.34790762958202
H   37   1    -1.75003190025884     6.78104976168840    -0.99229329828299
H   38   1    -2.65834387984003     4.49309409198925    -2.75785496783350
H   39   1     0.32278033988471     4.89894112313146    -2.18344058692784
N   40   7    -3.37919124841212     5.33499353664873     3.94750181393545
H   41   1    -2.26357064378777     6.83195331430581     4.45515784003860
H   42   1    -4.15358022727151     4.76963661305810     5.62761006813313
H   43   1    -4.86681766873998     6.18449345978121     3.04686590187224
[GTO]
1 0
 s    6 1.00
          51528.086349  0.0017695545768669
          7737.2103487   0.013556436258096
           1760.374847   0.067162645785071
          496.87706544    0.23295905918518
          161.46520598    0.47040576982722
          55.466352268    0.35733072606876
 s    3 1.00
          107.54732999   -0.10605255446629
          12.408671897    0.62543981484169
          5.0423628826    0.44878820793655
 s    3 1.00
          8.5461640165   -0.21819012081133
          1.3900441221    0.70422525667731
         0.56066602876    0.42488555412558
 s    1 1.00
        0.071483705972                   1
 s    1 1.00
        0.028250687604                   1
 p    5 1.00
          640.48536096  0.0093555063746755
          150.69711194   0.068993338492216
          47.503755296     0.2634118959318
          16.934120165    0.51034501651775
           6.240968059    0.33195512953954
 p    3 1.00
          3.0885463206    0.32917682676976
          1.1791047769    0.55491385190365
         0.43369774432    0.23818412855984
 p    1 1.00
              0.120675                   1
 d    4 1.00
          27.559479426   0.036950140313562
          7.4687020327    0.18821519783039
          2.4345903574    0.44641244239929
         0.78244754808     0.5681617303244
 d    1 1.00
         0.21995774311                   1
 f    1 1.00
                 1.147                   1

2 0
 s    6 1.00
          51528.086349  0.0017695545768669
          7737.2103487   0.013556436258096
           1760.374847   0.067162645785071
          496.87706544    0.23295905918518
          161.46520598    0.47040576982722
          55.466352268    0.35733072606876
 s    3 1.00
          107.54732999   -0.10605255446629
          12.408671897    0.62543981484169
          5.0423628826    0.44878820793655
 s    3 1.00
          8.5461640165   -0.21819012081133
          1.3900441221    0.70422525667731
         0.56066602876    0.42488555412558
 s    1 1.00
        0.071483705972                   1
 s    1 1.00
        0.028250687604                   1
 p    5 1.00
          640.48536096  0.0093555063746755
          150.69711194   0.068993338492216
          47.503755296     0.2634118959318
          16.934120165    0.51034501651775
           6.240968059    0.33195512953954
 p    3 1.00
          3.0885463206    0.32917682676976
          1.1791047769    0.55491385190365
         0.43369774432    0.23818412855984
 p    1 1.00
              0.120675                   1
 d    4 1.00
          27.559479426   0.036950140313562
          7.4687020327    0.18821519783039
          2.4345903574    0.44641244239929
         0.78244754808     0.5681617303244
 d    1 1.00
         0.21995774311                   1
 f    1 1.00
                 1.147                   1

3 0
 s    5 1.00
          2266.1767785  -0.0053893503921743
          340.87010191   -0.04023472138896
          77.363135167   -0.18008184205526
           21.47964494   -0.46828857657651
          6.6589433124   -0.44692617160187
 s    1 1.00
         0.80975975668                   1
 s    1 1.00
         0.25530772234                   1
 p    3 1.00
          17.721504317   0.062630248763161
           3.863550544    0.33331138482352
          1.0480920883    0.74148638308122
 p    1 1.00
         0.27641544411                   1
 d    1 1.00
                   1.2                   1

4 0
 s    5 1.00
          1712.8415853  -0.0054477995804909
          257.64812677  -0.040627174632423
          58.458245853   -0.18111962250584
          16.198367905   -0.46843975563173
          5.0052600809   -0.44616846289231
 s    1 1.00
         0.58731856571                   1
 s    1 1.00
         0.18764592253                   1
 p    3 1.00
          13.571470233  -0.058848116969522
          2.9257372874   -0.32024624762471
         0.79927750754   -0.75328226520436
 p    1 1.00
         0.21954348034                   1
 d    1 1.00
                     1                   1

5 0
 s    3 1.00
             13.010701   0.033485484812989
             1.9622572    0.23472187088125
            0.44453796    0.81377028525955
 s    1 1.00
            0.12194962                   1
 p    1 1.00
                   0.8                   1

6 0
 s    3 1.00
             13.010701   0.033485484812989
             1.9622572    0.23472187088125
            0.44453796    0.81377028525955
 s    1 1.00
            0.12194962                   1
 p    1 1.00
                   0.8                   1

7 0
 s    3 1.00
             13.010701   0.033485484812989
             1.9622572    0.23472187088125
            0.44453796    0.81377028525955
 s    1 1.00
            0.12194962                   1
 p    1 1.00
                   0.8                   1

8 0
 s    5 1.00
          1712.8415853  -0.0054477995804909
          257.64812677  -0.040627174632423
          58.458245853   -0.18111962250584
          16.198367905   -0.46843975563173
          5.0052600809   -0.44616846289231
 s    1 1.00
         0.58731856571                   1
 s    1 1.00
         0.18764592253                   1
 p    3 1.00
          13.571470233  -0.058848116969522
          2.9257372874   -0.32024624762471
         0.79927750754   -0.75328226520436
 p    1 1.00
         0.21954348034                   1
 d    1 1.00
                     1                   1

9 0
 s    3 1.00
             13.010701   0.033485484812989
             1.9622572    0.23472187088125
            0.44453796    0.81377028525955
 s    1 1.00
            0.12194962                   1
 p    1 1.00
                   0.8                   1

10 0
 s    3 1.00
             13.010701   0.033485484812989
             1.9622572    0.23472187088125
            0.44453796    0.81377028525955
 s    1 1.00
            0.12194962                   1
 p    1 1.00
                   0.8                   1

11 0
 s    3 1.00
             13.010701   0.033485484812989
             1.9622572    0.23472187088125
            0.44453796    0.81377028525955
 s    1 1.00
            0.12194962                   1
 p    1 1.00
                   0.8                   1

12 0
 s    5 1.00
          1712.8415853  -0.0054477995804909
          257.64812677  -0.040627174632423
          58.458245853   -0.18111962250584
          16.198367905   -0.46843975563173
          5.0052600809   -0.44616846289231
 s    1 1.00
         0.58731856571                   1
 s    1 1.00
         0.18764592253                   1
 p    3 1.00
          13.571470233  -0.058848116969522
          2.9257372874   -0.32024624762471
         0.79927750754   -0.75328226520436
 p    1 1.00
         0.21954348034                   1
 d    1 1.00
                     1                   1

13 0
 s    3 1.00
             13.010701   0.033485484812989
             1.9622572    0.23472187088125
            0.44453796    0.81377028525955
 s    1 1.00
            0.12194962                   1
 p    1 1.00
                   0.8                   1

14 0
 s    3 1.00
             13.010701   0.033485484812989
             1.9622572    0.23472187088125
            0.44453796    0.81377028525955
 s    1 1.00
            0.12194962                   1
 p    1 1.00
                   0.8                   1

15 0
 s    3 1.00
             13.010701   0.033485484812989
             1.9622572    0.23472187088125
            0.44453796    0.81377028525955
 s    1 1.00
            0.12194962                   1
 p    1 1.00
                   0.8                   1

16 0
 s    5 1.00
          1712.8415853  -0.0054477995804909
          257.64812677  -0.040627174632423
          58.458245853   -0.18111962250584
          16.198367905   -0.46843975563173
          5.0052600809   -0.44616846289231
 s    1 1.00
         0.58731856571                   1
 s    1 1.00
         0.18764592253                   1
 p    3 1.00
          13.571470233  -0.058848116969522
          2.9257372874   -0.32024624762471
         0.79927750754   -0.75328226520436
 p    1 1.00
         0.21954348034                   1
 d    1 1.00
                     1                   1

17 0
 s    3 1.00
             13.010701   0.033485484812989
             1.9622572    0.23472187088125
            0.44453796    0.81377028525955
 s    1 1.00
            0.12194962                   1
 p    1 1.00
                   0.8                   1

18 0
 s    3 1.00
             13.010701   0.033485484812989
             1.9622572    0.23472187088125
            0.44453796    0.81377028525955
 s    1 1.00
            0.12194962                   1
 p    1 1.00
                   0.8                   1

19 0
 s    3 1.00
             13.010701   0.033485484812989
             1.9622572    0.23472187088125
            0.44453796    0.81377028525955
 s    1 1.00
            0.12194962                   1
 p    1 1.00
                   0.8                   1

20 0
 s    5 1.00
          1712.8415853  -0.0054477995804909
          257.64812677  -0.040627174632423
          58.458245853   -0.18111962250584
          16.198367905   -0.46843975563173
          5.0052600809   -0.44616846289231
 s    1 1.00
         0.58731856571                   1
 s    1 1.00
         0.18764592253                   1
 p    3 1.00
          13.571470233  -0.058848116969522
          2.9257372874   -0.32024624762471
         0.79927750754   -0.75328226520436
 p    1 1.00
         0.21954348034                   1
 d    1 1.00
                     1                   1

21 0
 s    3 1.00
             13.010701   0.033485484812989
             1.9622572    0.23472187088125
            0.44453796    0.81377028525955
 s    1 1.00
            0.12194962                   1
 p    1 1.00
                   0.8                   1

22 0
 s    3 1.00
             13.010701   0.033485484812989
             1.9622572    0.23472187088125
            0.44453796    0.81377028525955
 s    1 1.00
            0.12194962                   1
 p    1 1.00
                   0.8                   1

23 0
 s    3 1.00
             13.010701   0.033485484812989
             1.9622572    0.23472187088125
            0.44453796    0.81377028525955
 s    1 1.00
            0.12194962                   1
 p    1 1.00
                   0.8                   1

24 0
 s    5 1.00
          1712.8415853  -0.0054477995804909
          257.64812677  -0.040627174632423
          58.458245853   -0.18111962250584
          16.198367905   -0.46843975563173
          5.0052600809   -0.44616846289231
 s    1 1.00
         0.58731856571                   1
 s    1 1.00
         0.18764592253                   1
 p    3 1.00
          13.571470233  -0.058848116969522
          2.9257372874   -0.32024624762471
         0.79927750754   -0.75328226520436
 p    1 1.00
         0.21954348034                   1
 d    1 1.00
                     1                   1

25 0
 s    3 1.00
             13.010701   0.033485484812989
             1.9622572    0.23472187088125
            0.44453796    0.81377028525955
 s    1 1.00
            0.12194962                   1
 p    1 1.00
                   0.8                   1

26 0
 s    3 1.00
             13.010701   0.033485484812989
             1.9622572    0.23472187088125
            0.44453796    0.81377028525955
 s    1 1.00
            0.12194962                   1
 p    1 1.00
                   0.8                   1

27 0
 s    3 1.00
             13.010701   0.033485484812989
             1.9622572    0.23472187088125
            0.44453796    0.81377028525955
 s    1 1.00
            0.12194962                   1
 p    1 1.00
                   0.8                   1

28 0
 s    5 1.00
          1712.8415853  -0.0054477995804909
          257.64812677  -0.040627174632423
          58.458245853   -0.18111962250584
          16.198367905   -0.46843975563173
          5.0052600809   -0.44616846289231
 s    1 1.00
         0.58731856571                   1
 s    1 1.00
         0.18764592253                   1
 p    3 1.00
          13.571470233  -0.058848116969522
          2.9257372874   -0.32024624762471
         0.79927750754   -0.75328226520436
 p    1 1.00
         0.21954348034                   1
 d    1 1.00
                     1                   1

29 0
 s    3 1.00
             13.010701   0.033485484812989
             1.9622572    0.23472187088125
            0.44453796    0.81377028525955
 s    1 1.00
            0.12194962                   1
 p    1 1.00
                   0.8                   1

30 0
 s    3 1.00
             13.010701   0.033485484812989
             1.9622572    0.23472187088125
            0.44453796    0.81377028525955
 s    1 1.00
            0.12194962                   1
 p    1 1.00
                   0.8                   1

31 0
 s    3 1.00
             13.010701   0.033485484812989
             1.9622572    0.23472187088125
            0.44453796    0.81377028525955
 s    1 1.00
            0.12194962                   1
 p    1 1.00
                   0.8                   1

32 0
 s    5 1.00
          1712.8415853  -0.0054477995804909
          257.64812677  -0.040627174632423
          58.458245853   -0.18111962250584
          16.198367905   -0.46843975563173
          5.0052600809   -0.44616846289231
 s    1 1.00
         0.58731856571                   1
 s    1 1.00
         0.18764592253                   1
 p    3 1.00
          13.571470233  -0.058848116969522
          2.9257372874   -0.32024624762471
         0.79927750754   -0.75328226520436
 p    1 1.00
         0.21954348034                   1
 d    1 1.00
                     1                   1

33 0
 s    3 1.00
             13.010701   0.033485484812989
             1.9622572    0.23472187088125
            0.44453796    0.81377028525955
 s    1 1.00
            0.12194962                   1
 p    1 1.00
                   0.8                   1

34 0
 s    3 1.00
             13.010701   0.033485484812989
             1.9622572    0.23472187088125
            0.44453796    0.81377028525955
 s    1 1.00
            0.12194962                   1
 p    1 1.00
                   0.8                   1

35 0
 s    3 1.00
             13.010701   0.033485484812989
             1.9622572    0.23472187088125
            0.44453796    0.81377028525955
 s    1 1.00
            0.12194962                   1
 p    1 1.00
                   0.8                   1

36 0
 s    5 1.00
          1712.8415853  -0.0054477995804909
          257.64812677  -0.040627174632423
          58.458245853   -0.18111962250584
          16.198367905   -0.46843975563173
          5.0052600809   -0.44616846289231
 s    1 1.00
         0.58731856571                   1
 s    1 1.00
         0.18764592253                   1
 p    3 1.00
          13.571470233  -0.058848116969522
          2.9257372874   -0.32024624762471
         0.79927750754   -0.75328226520436
 p    1 1.00
         0.21954348034                   1
 d    1 1.00
                     1                   1

37 0
 s    3 1.00
             13.010701   0.033485484812989
             1.9622572    0.23472187088125
            0.44453796    0.81377028525955
 s    1 1.00
            0.12194962                   1
 p    1 1.00
                   0.8                   1

38 0
 s    3 1.00
             13.010701   0.033485484812989
             1.9622572    0.23472187088125
            0.44453796    0.81377028525955
 s    1 1.00
            0.12194962                   1
 p    1 1.00
                   0.8                   1

39 0
 s    3 1.00
             13.010701   0.033485484812989
             1.9622572    0.23472187088125
            0.44453796    0.81377028525955
 s    1 1.00
            0.12194962                   1
 p    1 1.00
                   0.8                   1

40 0
 s    5 1.00
          1712.8415853  -0.0054477995804909
          257.64812677  -0.040627174632423
          58.458245853   -0.18111962250584
          16.198367905   -0.46843975563173
          5.0052600809   -0.44616846289231
 s    1 1.00
         0.58731856571                   1
 s    1 1.00
         0.18764592253                   1
 p    3 1.00
          13.571470233  -0.058848116969522
          2.9257372874   -0.32024624762471
         0.79927750754   -0.75328226520436
 p    1 1.00
         0.21954348034                   1
 d    1 1.00
                     1                   1

41 0
 s    3 1.00
             13.010701   0.033485484812989
             1.9622572    0.23472187088125
            0.44453796    0.81377028525955
 s    1 1.00
            0.12194962                   1
 p    1 1.00
                   0.8                   1

42 0
 s    3 1.00
             13.010701   0.033485484812989
             1.9622572    0.23472187088125
            0.44453796    0.81377028525955
 s    1 1.00
            0.12194962                   1
 p    1 1.00
                   0.8                   1

43 0
 s    3 1.00
             13.010701   0.033485484812989
             1.9622572    0.23472187088125
            0.44453796    0.81377028525955
 s    1 1.00
            0.12194962                   1
 p    1 1.00
                   0.8                   1

[5d]
[7f]
[9g]

[MO]
 Sym= A
 Ene=               0
 Spin= Alpha
 Occup=    1.00000
   1    -0.00011976130218811
   2    0.00023374457652404
   3    -0.0021838430611708
   4    -6.8941379037654e-05
   5    0.0014254029065083
   6    -0.0079597013680389
   7    -0.0070342894769783
   8    0.0034648022731158
   9      0.03748590381975
  10     0.032928603796588
  11     -0.01631425482191
  12     0.065926471218518
  13     0.062044969179867
  14    -0.026482025368857
  15    -0.018376578714967
  16     0.035671377487416
  17     0.010431691083401
  18    -0.056505264148121
  19     0.014717862984982
  20      -0.0102768354758
  21     0.019904704062494
  22    0.0058469183095351
  23    -0.030609251516988
  24    0.0083289599459761
  25    -0.00073881483622246
  26    0.0011999143713118
  27    -0.00073008161389216
  28    -0.0027950721813544
  29    0.0020100065352532
  30     0.001415260104467
  31    -0.0033632547755707
  32    0.00011951809731321
  33    -0.00023328497943397
  34     0.002181579899309
  35    -0.00019037193519254
  36    -0.0008010419462729
  37    -0.0079474524398497
  38    -0.007045242657835
  39    0.0034647782549653
  40     0.037443853557286
  41     0.032962529309605
  42    -0.016323189518363
  43     0.066016596207945
  44     0.062068573617788
  45    -0.026222372652651
  46     0.018489587565076
  47    -0.035687474681301
  48    -0.010382323134872
  49     0.056531122828646
  50    -0.014517230170366
  51     0.010241166764764
  52    -0.019837648589396
  53    -0.0058934522654288
  54     0.030639181963435
  55    -0.0084867692658813
  56    -0.0007406331374216
  57    0.0011996672288018
  58    -0.00073926994623698
  59    -0.0027946196099175
  60    0.0020144968908822
  61    0.0014181970882045
  62    -0.0033564283134153
  63    -5.0546391730835e-05
  64    9.8110687812197e-06
  65    4.7753178012756e-05
  66      0.33231413626482
  67      0.30738302506489
  68     -0.13383369352575
  69      0.28522260437142
  70      0.26372677670594
  71     -0.11502200309357
  72    -9.7630874611902e-06
  73    4.0804285496119e-06
  74    -6.9417985489627e-06
  75    9.0488562827026e-07
  76    -1.4037164878649e-05
  77     0.012458124235155
  78     0.042879182678826
  79    -0.002729973777998
  80    0.0011605696211792
  81     0.049816928796729
  82     0.046018313132306
  83    -0.0064786919848709
  84    -0.033501656010307
  85    -0.013628257564297
  86    -0.00019644713362828
  87    -0.0015239972586483
  88     0.000443195058186
  89    0.0035260193062217
  90    -0.0019024669721718
  91     0.055137767256847
  92     0.011715297011209
  93    -0.0052815777635547
  94    0.00026574474794996
  95    0.0020494104277993
  96    -0.012568526532397
  97    -0.0087270751693753
  98    0.0014258864080537
  99    -0.0024279800121935
 100    -0.00014255686114761
 101    -0.025458791253229
 102     0.012340587645358
 103    -0.0027907931145762
 104    0.00015178779104352
 105    -0.0022370242634876
 106     0.010683864605363
 107     0.034541436832556
 108    0.0090239113823265
 109    -0.027904177106816
 110     0.046144163294992
 111    -0.001073306895623
 112     0.010034239627521
 113     -0.02219409463932
 114    0.0050828617364982
 115    0.0027435531461023
 116    -0.00017435517407853
 117    0.0011556730172401
 118    3.1369291369217e-05
 119    0.0011749793583123
 120    -0.032321060936683
 121    -0.0076381725436411
 122    -0.0018849777472055
 123    0.0010999531527845
 124    0.0020976697813118
 125       0.0321469454545
 126     0.010760427180005
 127     0.002137670891526
 128    -8.0209117567841e-05
 129    0.0031977286556177
 130    0.0097193204857368
 131    -0.0025797380775468
 132    -0.00033327197295305
 133    -0.0027557898972883
 134    -0.00043488517387598
 135    -0.010976020132685
 136    -0.036927039001605
 137    0.0037451374975248
 138     0.018155352470478
 139    -0.022643749606113
 140    -0.051450702833865
 141    -0.021138643528187
 142    0.0031940723777825
 143     0.025335335713366
 144    0.0011619716228609
 145    -0.001422023645256
 146    0.00018176525156848
 147    0.0029876083582422
 148     0.001259443054594
 149    -0.048103402091757
 150    -0.010043812633945
 151    0.00024341798788248
 152    -0.0049344194511328
 153    0.00062110013333124
 154     0.020758041926351
 155    -0.013937742922411
 156    0.0011700448173606
 157    -0.0013116233755328
 158    0.0028605620814693
 159     0.012340080638759
 160    0.0084516503231556
 161    -0.0021273415662247
 162    0.0014457660057788
 163    0.0002240184122129
 164    -0.012362448760326
 165    -0.039257586374976
 166    -0.0085306449520705
 167     0.052399665853896
 168    -0.031517018757434
 169     -0.01307115253294
 170    -0.026619312450812
 171    0.0090510175531062
 172    0.0029438268081028
 173    -0.0020997145703868
 174    -0.00060648578291073
 175    -0.0026825513129859
 176    0.00086082563392428
 177    -0.0015991941012314
 178    -0.0019403007246153
 179    0.0039811371612926
 180    -0.0021644128340487
 181    0.0010777664698942
 182    0.0013798871762172
 183    -0.043827711047304
 184    -0.014280601859404
 185    -0.0020546423169343
 186    -0.00072946970660871
 187    -0.0043421073017936
 188     0.034935894054486
 189    0.0079484845478646
 190    6.7233029912867e-05
 191    -0.0029703056421961
 192    -9.8350918795293e-05
 193    -0.0001465462242592
 194    -0.0013723205995976
 195    -0.00096451596245514
 196    -0.073721561096494
 197    -0.068182664368327
 198     0.030711363062206
 199     0.040623209585127
 200       0.0369579543035
 201    -0.016970730777627
 202    0.0025821240683193
 203    -0.0022499975984132
 204    -0.0022200747554123
 205    0.0013461928789553
 206    -0.0018922843438299
 207     0.062614437156074
 208     0.010956660187823
 209    -0.00098301439343542
 210    0.00010574287101349
 211    0.0059875082270532
 212     -0.07168693125239
 213    -0.012575654032992
 214    -0.0026486687347799
 215    -0.0050054228861674
 216     -0.00365195358001
 217    0.0088335900485657
 218    0.0013726845661275
 219    0.0016645985886771
 220    0.0028703448085209
 221    -0.0015495656258766
 222    -0.012465608370266
 223    -0.042952439241843
 224    0.0038252038584864
 225    0.00098556541198233
 226     0.049743740662265
 227     0.046651482840441
 228    -0.0058110841761596
 229    -0.034537834380053
 230    -0.014743452410213
 231    -1.1587602128752e-05
 232    0.0015347146770361
 233    -0.00019259674553344
 234    -0.0036054433544502
 235    0.0016955339912641
 236     0.026974346036494
 237    -0.013231338943505
 238    -0.0031424574851236
 239    0.00041735625305075
 240    -0.0021778609040802
 241    0.0097295955952634
 242    0.0078369688788963
 243    0.0014449337786066
 244    -0.0023908693019176
 245    -0.00054596203800097
 246    -0.054478647793876
 247    -0.011036235128486
 248    -0.0051472848942536
 249    -0.00011004629498109
 250    0.0022743506007438
 251    -0.010642007529029
 252    -0.034352096510141
 253    -0.0095808601252679
 254    -0.027042268303883
 255     0.046283186839615
 256    -0.0008084546033801
 257    0.0084630200221174
 258     -0.02172645169063
 259    0.0052675570392408
 260    -0.0028369268008685
 261    0.00032045561261179
 262    -0.001302247370184
 263    0.00015304240621842
 264    -0.00093149730029838
 265    -0.034457403931547
 266    -0.011772599613989
 267    0.0018760576550933
 268    6.1177772934017e-05
 269    0.0035332079989385
 270     0.031733685034246
 271    0.0090562094341804
 272    -0.0020836875231087
 273    0.0009249845624216
 274    0.0015699173179653
 275    -0.0064365762710512
 276    0.0026873443174099
 277    3.6788446717465e-06
 278    -0.0026335216274811
 279    -0.00042035864754351
 280     0.012402919436413
 281      0.03949817365044
 282    0.0084011784138685
 283      0.05255502393981
 284    -0.031827792007935
 285    -0.012573154626008
 286     -0.02704990112533
 287     0.010036369200957
 288    0.0025539632624704
 289    0.0021994616759029
 290    0.00063414141059414
 291    0.0024225378225173
 292    -0.00083177412694451
 293     0.001731245125106
 294     0.042214017806016
 295     0.013501632521938
 296    -0.0020706759641701
 297    -0.00037546308513186
 298    -0.0042614719080488
 299    0.0044975432121529
 300    -0.0037628498372335
 301    -0.0022321391166167
 302    0.00090425747301556
 303    0.0016102860984943
 304    -0.035718697478742
 305    -0.0070876956254099
 306    3.728231929977e-05
 307    -0.0031255092899599
 308    -0.00052906694158361
 309      0.01096821074929
 310     0.036701665141764
 311    -0.0024521746821537
 312     0.018332482462674
 313    -0.022103706732751
 314    -0.050932058366667
 315    -0.020515299605371
 316    0.0021128233962057
 317     0.024203565868937
 318    -0.0011628566751544
 319    0.0012591132871658
 320    -0.00015784924786467
 321    -0.0029524695371626
 322    -0.0015290779298656
 323     0.048147971961161
 324     0.010583558307446
 325    0.0006069776702139
 326    -0.0048890541383735
 327    0.00069413378753854
 328      -0.0144779967039
 329    -0.0095143684701032
 330    -0.0022657321537223
 331    0.0012510304435653
 332    -2.6807981186614e-05
 333    -0.019414183969347
 334      0.01290091729947
 335    0.00093588582078015
 336    -0.0010321436278596
 337    0.0028410252832924
 338    0.00015802732137961
 339    0.0013087405903892
 340    0.0008358096917934
 341    -0.073819762219853
 342    -0.068224499501481
 343     0.030416555120747
 344      0.04045425298162
 345     0.037163534906712