[Molden Format]
made by pyscf v[2.1.1]
[Atoms] (AU)
Cr   1   24     1.56143912275337    -2.46507591990239    -1.82404491365355
Cr   2   24    -1.56139565905251     2.46513072196000     1.82399011159594
O   3   8     0.00002078698737     0.00002834589187    -0.00002645616574
N   4   7     5.12832174930954    -1.10581670549011    -0.60767356069801
H   5   1     6.65216855026694    -1.66292686427314    -1.66487895135981
H   6   1     5.63710405218294    -1.59213394419468     1.18765885421890
H   7   1     5.20084187906585     0.81566059741989    -0.65509245834172
N   8   7     1.71230729763415    -0.02251608677419    -4.99594076510539
H   9   1     0.29795878723855     1.27247165241550    -4.90823668593820
H   10   1     1.50271021425414    -0.85583806455427    -6.73026148236459
H   11   1     3.34039895052705     0.99863710888315    -5.18656310846864
N   12   7     1.41057094787259    -4.90763575303059     1.34785282752440
H   13   1     1.64193389675534    -6.79355407945465     0.97314659318890
H   14   1    -0.29048681014202    -4.81040367474334     2.24006056107205
H   15   1     2.72468082571676    -4.56691435331926     2.71738081369757
N   16   7    -2.00544350380280    -3.82433513431467    -3.04041437688297
H   17   1    -2.87205678671934    -5.05516478184926    -1.83221042023780
H   18   1    -2.03637832046193    -4.76397121413665    -4.73247136936628
H   19   1    -3.24475802163669    -2.37551046050250    -3.28123540501917
N   20   7     3.37923471211299    -5.33493873459111    -3.94755661599306
H   21   1     4.17102617885350    -4.76109883042731    -5.61685374703210
H   22   1     2.26176595533881    -6.82326057413281    -4.47610923358166
H   23   1     4.85383336053810    -6.19899521806112    -3.03922195969837
N   24   7    -5.12827828560868     1.10587339727385     0.60762064836653
H   25   1    -5.15408816501799    -0.81544705836782     0.54662784797006
H   26   1    -5.69743166898356     1.68113626520945    -1.14337690194197
H   27   1    -6.63528195761783     1.56841410187914     1.73267665553083
N   28   7    -1.71226383393328     0.02257088883181     4.99588785277390
H   29   1    -1.62991523860311     0.86667375415253     6.73575491620870
H   30   1    -0.22416876152653    -1.19157625647512     4.98456461383551
H   31   1    -3.28782110056328    -1.08746368536834     5.11339858210385
N   32   7     2.00548696750367     3.82438993637228     3.04035957482536
H   33   1     2.05186651577887     4.68410571893416     4.77402266739321
H   34   1     2.83712330958063     5.12208376337235     1.87805706574587
H   35   1     3.26582090902109     2.38241174030942     3.19051154350492
N   36   7    -1.41052748417173     4.90769055508820    -1.34790762958202
H   37   1    -1.75003190025884     6.78104976168840    -0.99229329828299
H   38   1    -2.65834387984003     4.49309409198925    -2.75785496783350
H   39   1     0.32278033988471     4.89894112313146    -2.18344058692784
N   40   7    -3.37919124841212     5.33499353664873     3.94750181393545
H   41   1    -2.26357064378777     6.83195331430581     4.45515784003860
H   42   1    -4.15358022727151     4.76963661305810     5.62761006813313
H   43   1    -4.86681766873998     6.18449345978121     3.04686590187224
[GTO]
1 0
 s    6 1.00
          51528.086349  0.0017695545768669
          7737.2103487   0.013556436258096
           1760.374847   0.067162645785071
          496.87706544    0.23295905918518
          161.46520598    0.47040576982722
          55.466352268    0.35733072606876
 s    3 1.00
          107.54732999   -0.10605255446629
          12.408671897    0.62543981484169
          5.0423628826    0.44878820793655
 s    3 1.00
          8.5461640165   -0.21819012081133
          1.3900441221    0.70422525667731
         0.56066602876    0.42488555412558
 s    1 1.00
        0.071483705972                   1
 s    1 1.00
        0.028250687604                   1
 p    5 1.00
          640.48536096  0.0093555063746755
          150.69711194   0.068993338492216
          47.503755296     0.2634118959318
          16.934120165    0.51034501651775
           6.240968059    0.33195512953954
 p    3 1.00
          3.0885463206    0.32917682676976
          1.1791047769    0.55491385190365
         0.43369774432    0.23818412855984
 p    1 1.00
              0.120675                   1
 d    4 1.00
          27.559479426   0.036950140313562
          7.4687020327    0.18821519783039
          2.4345903574    0.44641244239929
         0.78244754808     0.5681617303244
 d    1 1.00
         0.21995774311                   1
 f    1 1.00
                 1.147                   1

2 0
 s    6 1.00
          51528.086349  0.0017695545768669
          7737.2103487   0.013556436258096
           1760.374847   0.067162645785071
          496.87706544    0.23295905918518
          161.46520598    0.47040576982722
          55.466352268    0.35733072606876
 s    3 1.00
          107.54732999   -0.10605255446629
          12.408671897    0.62543981484169
          5.0423628826    0.44878820793655
 s    3 1.00
          8.5461640165   -0.21819012081133
          1.3900441221    0.70422525667731
         0.56066602876    0.42488555412558
 s    1 1.00
        0.071483705972                   1
 s    1 1.00
        0.028250687604                   1
 p    5 1.00
          640.48536096  0.0093555063746755
          150.69711194   0.068993338492216
          47.503755296     0.2634118959318
          16.934120165    0.51034501651775
           6.240968059    0.33195512953954
 p    3 1.00
          3.0885463206    0.32917682676976
          1.1791047769    0.55491385190365
         0.43369774432    0.23818412855984
 p    1 1.00
              0.120675                   1
 d    4 1.00
          27.559479426   0.036950140313562
          7.4687020327    0.18821519783039
          2.4345903574    0.44641244239929
         0.78244754808     0.5681617303244
 d    1 1.00
         0.21995774311                   1
 f    1 1.00
                 1.147                   1

3 0
 s    5 1.00
          2266.1767785  -0.0053893503921743
          340.87010191   -0.04023472138896
          77.363135167   -0.18008184205526
           21.47964494   -0.46828857657651
          6.6589433124   -0.44692617160187
 s    1 1.00
         0.80975975668                   1
 s    1 1.00
         0.25530772234                   1
 p    3 1.00
          17.721504317   0.062630248763161
           3.863550544    0.33331138482352
          1.0480920883    0.74148638308122
 p    1 1.00
         0.27641544411                   1
 d    1 1.00
                   1.2                   1

4 0
 s    5 1.00
          1712.8415853  -0.0054477995804909
          257.64812677  -0.040627174632423
          58.458245853   -0.18111962250584
          16.198367905   -0.46843975563173
          5.0052600809   -0.44616846289231
 s    1 1.00
         0.58731856571                   1
 s    1 1.00
         0.18764592253                   1
 p    3 1.00
          13.571470233  -0.058848116969522
          2.9257372874   -0.32024624762471
         0.79927750754   -0.75328226520436
 p    1 1.00
         0.21954348034                   1
 d    1 1.00
                     1                   1

5 0
 s    3 1.00
             13.010701   0.033485484812989
             1.9622572    0.23472187088125
            0.44453796    0.81377028525955
 s    1 1.00
            0.12194962                   1
 p    1 1.00
                   0.8                   1

6 0
 s    3 1.00
             13.010701   0.033485484812989
             1.9622572    0.23472187088125
            0.44453796    0.81377028525955
 s    1 1.00
            0.12194962                   1
 p    1 1.00
                   0.8                   1

7 0
 s    3 1.00
             13.010701   0.033485484812989
             1.9622572    0.23472187088125
            0.44453796    0.81377028525955
 s    1 1.00
            0.12194962                   1
 p    1 1.00
                   0.8                   1

8 0
 s    5 1.00
          1712.8415853  -0.0054477995804909
          257.64812677  -0.040627174632423
          58.458245853   -0.18111962250584
          16.198367905   -0.46843975563173
          5.0052600809   -0.44616846289231
 s    1 1.00
         0.58731856571                   1
 s    1 1.00
         0.18764592253                   1
 p    3 1.00
          13.571470233  -0.058848116969522
          2.9257372874   -0.32024624762471
         0.79927750754   -0.75328226520436
 p    1 1.00
         0.21954348034                   1
 d    1 1.00
                     1                   1

9 0
 s    3 1.00
             13.010701   0.033485484812989
             1.9622572    0.23472187088125
            0.44453796    0.81377028525955
 s    1 1.00
            0.12194962                   1
 p    1 1.00
                   0.8                   1

10 0
 s    3 1.00
             13.010701   0.033485484812989
             1.9622572    0.23472187088125
            0.44453796    0.81377028525955
 s    1 1.00
            0.12194962                   1
 p    1 1.00
                   0.8                   1

11 0
 s    3 1.00
             13.010701   0.033485484812989
             1.9622572    0.23472187088125
            0.44453796    0.81377028525955
 s    1 1.00
            0.12194962                   1
 p    1 1.00
                   0.8                   1

12 0
 s    5 1.00
          1712.8415853  -0.0054477995804909
          257.64812677  -0.040627174632423
          58.458245853   -0.18111962250584
          16.198367905   -0.46843975563173
          5.0052600809   -0.44616846289231
 s    1 1.00
         0.58731856571                   1
 s    1 1.00
         0.18764592253                   1
 p    3 1.00
          13.571470233  -0.058848116969522
          2.9257372874   -0.32024624762471
         0.79927750754   -0.75328226520436
 p    1 1.00
         0.21954348034                   1
 d    1 1.00
                     1                   1

13 0
 s    3 1.00
             13.010701   0.033485484812989
             1.9622572    0.23472187088125
            0.44453796    0.81377028525955
 s    1 1.00
            0.12194962                   1
 p    1 1.00
                   0.8                   1

14 0
 s    3 1.00
             13.010701   0.033485484812989
             1.9622572    0.23472187088125
            0.44453796    0.81377028525955
 s    1 1.00
            0.12194962                   1
 p    1 1.00
                   0.8                   1

15 0
 s    3 1.00
             13.010701   0.033485484812989
             1.9622572    0.23472187088125
            0.44453796    0.81377028525955
 s    1 1.00
            0.12194962                   1
 p    1 1.00
                   0.8                   1

16 0
 s    5 1.00
          1712.8415853  -0.0054477995804909
          257.64812677  -0.040627174632423
          58.458245853   -0.18111962250584
          16.198367905   -0.46843975563173
          5.0052600809   -0.44616846289231
 s    1 1.00
         0.58731856571                   1
 s    1 1.00
         0.18764592253                   1
 p    3 1.00
          13.571470233  -0.058848116969522
          2.9257372874   -0.32024624762471
         0.79927750754   -0.75328226520436
 p    1 1.00
         0.21954348034                   1
 d    1 1.00
                     1                   1

17 0
 s    3 1.00
             13.010701   0.033485484812989
             1.9622572    0.23472187088125
            0.44453796    0.81377028525955
 s    1 1.00
            0.12194962                   1
 p    1 1.00
                   0.8                   1

18 0
 s    3 1.00
             13.010701   0.033485484812989
             1.9622572    0.23472187088125
            0.44453796    0.81377028525955
 s    1 1.00
            0.12194962                   1
 p    1 1.00
                   0.8                   1

19 0
 s    3 1.00
             13.010701   0.033485484812989
             1.9622572    0.23472187088125
            0.44453796    0.81377028525955
 s    1 1.00
            0.12194962                   1
 p    1 1.00
                   0.8                   1

20 0
 s    5 1.00
          1712.8415853  -0.0054477995804909
          257.64812677  -0.040627174632423
          58.458245853   -0.18111962250584
          16.198367905   -0.46843975563173
          5.0052600809   -0.44616846289231
 s    1 1.00
         0.58731856571                   1
 s    1 1.00
         0.18764592253                   1
 p    3 1.00
          13.571470233  -0.058848116969522
          2.9257372874   -0.32024624762471
         0.79927750754   -0.75328226520436
 p    1 1.00
         0.21954348034                   1
 d    1 1.00
                     1                   1

21 0
 s    3 1.00
             13.010701   0.033485484812989
             1.9622572    0.23472187088125
            0.44453796    0.81377028525955
 s    1 1.00
            0.12194962                   1
 p    1 1.00
                   0.8                   1

22 0
 s    3 1.00
             13.010701   0.033485484812989
             1.9622572    0.23472187088125
            0.44453796    0.81377028525955
 s    1 1.00
            0.12194962                   1
 p    1 1.00
                   0.8                   1

23 0
 s    3 1.00
             13.010701   0.033485484812989
             1.9622572    0.23472187088125
            0.44453796    0.81377028525955
 s    1 1.00
            0.12194962                   1
 p    1 1.00
                   0.8                   1

24 0
 s    5 1.00
          1712.8415853  -0.0054477995804909
          257.64812677  -0.040627174632423
          58.458245853   -0.18111962250584
          16.198367905   -0.46843975563173
          5.0052600809   -0.44616846289231
 s    1 1.00
         0.58731856571                   1
 s    1 1.00
         0.18764592253                   1
 p    3 1.00
          13.571470233  -0.058848116969522
          2.9257372874   -0.32024624762471
         0.79927750754   -0.75328226520436
 p    1 1.00
         0.21954348034                   1
 d    1 1.00
                     1                   1

25 0
 s    3 1.00
             13.010701   0.033485484812989
             1.9622572    0.23472187088125
            0.44453796    0.81377028525955
 s    1 1.00
            0.12194962                   1
 p    1 1.00
                   0.8                   1

26 0
 s    3 1.00
             13.010701   0.033485484812989
             1.9622572    0.23472187088125
            0.44453796    0.81377028525955
 s    1 1.00
            0.12194962                   1
 p    1 1.00
                   0.8                   1

27 0
 s    3 1.00
             13.010701   0.033485484812989
             1.9622572    0.23472187088125
            0.44453796    0.81377028525955
 s    1 1.00
            0.12194962                   1
 p    1 1.00
                   0.8                   1

28 0
 s    5 1.00
          1712.8415853  -0.0054477995804909
          257.64812677  -0.040627174632423
          58.458245853   -0.18111962250584
          16.198367905   -0.46843975563173
          5.0052600809   -0.44616846289231
 s    1 1.00
         0.58731856571                   1
 s    1 1.00
         0.18764592253                   1
 p    3 1.00
          13.571470233  -0.058848116969522
          2.9257372874   -0.32024624762471
         0.79927750754   -0.75328226520436
 p    1 1.00
         0.21954348034                   1
 d    1 1.00
                     1                   1

29 0
 s    3 1.00
             13.010701   0.033485484812989
             1.9622572    0.23472187088125
            0.44453796    0.81377028525955
 s    1 1.00
            0.12194962                   1
 p    1 1.00
                   0.8                   1

30 0
 s    3 1.00
             13.010701   0.033485484812989
             1.9622572    0.23472187088125
            0.44453796    0.81377028525955
 s    1 1.00
            0.12194962                   1
 p    1 1.00
                   0.8                   1

31 0
 s    3 1.00
             13.010701   0.033485484812989
             1.9622572    0.23472187088125
            0.44453796    0.81377028525955
 s    1 1.00
            0.12194962                   1
 p    1 1.00
                   0.8                   1

32 0
 s    5 1.00
          1712.8415853  -0.0054477995804909
          257.64812677  -0.040627174632423
          58.458245853   -0.18111962250584
          16.198367905   -0.46843975563173
          5.0052600809   -0.44616846289231
 s    1 1.00
         0.58731856571                   1
 s    1 1.00
         0.18764592253                   1
 p    3 1.00
          13.571470233  -0.058848116969522
          2.9257372874   -0.32024624762471
         0.79927750754   -0.75328226520436
 p    1 1.00
         0.21954348034                   1
 d    1 1.00
                     1                   1

33 0
 s    3 1.00
             13.010701   0.033485484812989
             1.9622572    0.23472187088125
            0.44453796    0.81377028525955
 s    1 1.00
            0.12194962                   1
 p    1 1.00
                   0.8                   1

34 0
 s    3 1.00
             13.010701   0.033485484812989
             1.9622572    0.23472187088125
            0.44453796    0.81377028525955
 s    1 1.00
            0.12194962                   1
 p    1 1.00
                   0.8                   1

35 0
 s    3 1.00
             13.010701   0.033485484812989
             1.9622572    0.23472187088125
            0.44453796    0.81377028525955
 s    1 1.00
            0.12194962                   1
 p    1 1.00
                   0.8                   1

36 0
 s    5 1.00
          1712.8415853  -0.0054477995804909
          257.64812677  -0.040627174632423
          58.458245853   -0.18111962250584
          16.198367905   -0.46843975563173
          5.0052600809   -0.44616846289231
 s    1 1.00
         0.58731856571                   1
 s    1 1.00
         0.18764592253                   1
 p    3 1.00
          13.571470233  -0.058848116969522
          2.9257372874   -0.32024624762471
         0.79927750754   -0.75328226520436
 p    1 1.00
         0.21954348034                   1
 d    1 1.00
                     1                   1

37 0
 s    3 1.00
             13.010701   0.033485484812989
             1.9622572    0.23472187088125
            0.44453796    0.81377028525955
 s    1 1.00
            0.12194962                   1
 p    1 1.00
                   0.8                   1

38 0
 s    3 1.00
             13.010701   0.033485484812989
             1.9622572    0.23472187088125
            0.44453796    0.81377028525955
 s    1 1.00
            0.12194962                   1
 p    1 1.00
                   0.8                   1

39 0
 s    3 1.00
             13.010701   0.033485484812989
             1.9622572    0.23472187088125
            0.44453796    0.81377028525955
 s    1 1.00
            0.12194962                   1
 p    1 1.00
                   0.8                   1

40 0
 s    5 1.00
          1712.8415853  -0.0054477995804909
          257.64812677  -0.040627174632423
          58.458245853   -0.18111962250584
          16.198367905   -0.46843975563173
          5.0052600809   -0.44616846289231
 s    1 1.00
         0.58731856571                   1
 s    1 1.00
         0.18764592253                   1
 p    3 1.00
          13.571470233  -0.058848116969522
          2.9257372874   -0.32024624762471
         0.79927750754   -0.75328226520436
 p    1 1.00
         0.21954348034                   1
 d    1 1.00
                     1                   1

41 0
 s    3 1.00
             13.010701   0.033485484812989
             1.9622572    0.23472187088125
            0.44453796    0.81377028525955
 s    1 1.00
            0.12194962                   1
 p    1 1.00
                   0.8                   1

42 0
 s    3 1.00
             13.010701   0.033485484812989
             1.9622572    0.23472187088125
            0.44453796    0.81377028525955
 s    1 1.00
            0.12194962                   1
 p    1 1.00
                   0.8                   1

43 0
 s    3 1.00
             13.010701   0.033485484812989
             1.9622572    0.23472187088125
            0.44453796    0.81377028525955
 s    1 1.00
            0.12194962                   1
 p    1 1.00
                   0.8                   1

[5d]
[7f]
[9g]

[MO]
 Sym= A
 Ene=               0
 Spin= Alpha
 Occup=    1.00000
   1    -1.1473480765951e-05
   2    3.0383336409609e-05
   3    -0.00017007510242593
   4    0.00037587380094458
   5    0.00031168864941898
   6    0.00020643743854791
   7    -5.6581187650168e-05
   8    0.00025035759686536
   9    -0.000671855004885
  10    0.00018517830698662
  11    -0.0008132727808766
  12    0.0010358073599455
  13    -0.00034633779850439
  14    0.0011701847724161
  15     -0.38111726876182
  16     -0.63589094968057
  17    -0.076299005775662
  18     -0.15878659041411
  19       0.5106377464096
  20    -0.080935412036774
  21     -0.13507025192011
  22    -0.016213132231617
  23    -0.033785449702353
  24       0.1085711519781
  25    0.00098658996482286
  26    0.00085766175438248
  27    0.00065796538250897
  28    -0.00054541624807542
  29    0.00032092313950632
  30    0.0008056347568021
  31    0.00093719706444319
  32    1.8444340384776e-06
  33    -4.2689290328118e-06
  34    3.0253875125889e-05
  35    -0.0001231908306233
  36    -0.0001044555346583
  37    3.747155055966e-06
  38    3.9733295979756e-07
  39    1.2950582588579e-05
  40    -1.3516771850197e-05
  41    -1.6067263335518e-06
  42    -4.5040627112319e-05
  43    4.3975377563209e-05
  44    2.0047308360789e-05
  45    0.00013416811771822
  46    0.00011489023465933
  47    0.00015393973679047
  48    1.8429891645143e-05
  49    3.8150139351178e-05
  50    -8.7493112977366e-05
  51    -0.00014340705429004
  52    -0.0001175578770505
  53    -6.5885219685698e-05
  54    -1.7116145294578e-05
  55    5.8450760232925e-05
  56    8.3579026521578e-06
  57    2.0409958729758e-06
  58    1.2989913274591e-05
  59    -5.0134314360144e-06
  60    4.2871155667478e-07
  61    1.2991985666028e-06
  62    1.3177744254247e-06
  63    -1.4394747334297e-05
  64    -3.2576860705223e-05
  65    2.4179572037616e-06
  66    0.0004792374707033
  67    -0.00023324625199966
  68    0.00071854669116342
  69    0.00023532601130602
  70    -0.00018610152264632
  71    0.0004075485513629
  72    -0.00042584304517666
  73    -0.00069313067821241
  74    -9.3743986418432e-05
  75    -0.00017227898537095
  76    0.0005575782508172
  77    -2.9399374934357e-06
  78    -2.61371651249e-05
  79    0.00049007620091489
  80    0.0013304401113162
  81      0.01270060877502
  82    -0.015739769870785
  83    -0.0015525364253099
  84    -0.008233918677487
  85     0.011264560169887
  86    0.0025782474184798
  87    0.0032602690693798
  88    -4.4032602069064e-05
  89    0.0010227187998287
  90    -0.002190086666172
  91    -0.0077390147107347
  92    -0.0030963050163147
  93    0.00052681881916355
  94    -0.00087865229436149
  95    0.00024958694844972
  96     0.024483883742726
  97     0.011579881626715
  98    -0.00062613774751707
  99    7.8915885053826e-05
 100    -0.001529328758057
 101    -0.017444555471334
 102    -0.0095358994303791
 103    -5.4122573860757e-05
 104     0.001426901240316
 105    0.00067332531590448
 106    4.7652742529466e-06
 107    8.1700061149228e-05
 108    -0.00063916223329836
 109     0.019190089176997
 110    0.0069062165123032
 111    0.0069075703284594
 112    -0.012894931623563
 113    -0.0053326584176804
 114    -0.0055240003763601
 115    0.0022331101786142
 116    0.0029106807574622
 117    0.00073980630901079
 118    0.00033225941629958
 119    -0.0031170415749267
 120     0.011871389228555
 121    0.0066023923938558
 122    0.00018017058331234
 123    -0.0012658562147498
 124    -0.00043643422144398
 125     0.014650441208017
 126    0.0061610222727784
 127    -0.0007674570495774
 128    0.00047280486552431
 129    0.0010128228189442
 130      -0.0258596022157
 131    -0.012065875015839
 132    0.0014566766919691
 133    0.00098875788711342
 134    -0.00047088861100237
 135    -1.0455901744314e-06
 136    -1.2750492446928e-05
 137    0.00039551922767684
 138     -0.01805872795721
 139    -0.007228195258101
 140    -0.005597987753247
 141     0.012084091853085
 142    0.0057448164688847
 143    0.0041421012966291
 144    0.0020646284240185
 145    0.0037927756313117
 146    0.00040799059698801
 147    0.00082811969560854
 148    -0.0018992225917854
 149    -0.0076891762117344
 150    -0.0030882806314808
 151    0.00095633731737576
 152    -0.00043174315160291
 153    2.4540404239074e-05
 154    -0.017424460712402
 155    -0.0094274706042965
 156    -0.00093253106358128
 157    0.00049578982511806
 158     0.001148100849244
 159     0.024530544777627
 160     0.011607526020925
 161    -0.00086412228568066
 162    -0.00015315922989244
 163    -0.0014168395595928
 164    -5.7811250034888e-06
 165    4.7068597419366e-05
 166    -0.00064529411954992
 167    -0.00018949082375185
 168    -0.012996961657814
 169     0.017085425059986
 170    0.00030442860221031
 171     0.008062669816417
 172    -0.012180189041875
 173    0.0015749679836652
 174    0.0032356984337138
 175    0.0011193531967953
 176    0.00069016928445676
 177    -0.0029848982029203
 178    -0.025870989050701
 179    -0.012267808391192
 180    -0.0010574775051482
 181    -0.001135767614891
 182    0.00097279112787133
 183     0.011200151634184
 184    0.0046325553575701
 185    -8.5800658419591e-05
 186    0.0012073017602853
 187    0.00022798125294891
 188     0.015341377984545
 189    0.0083723259449681
 190    0.0011301356595042
 191    -0.00082191714332393
 192    -0.00058921662571806
 193    -2.7204018078423e-05
 194    -6.8735310778727e-05
 195    8.6286659176718e-06
 196    -0.0014838936806827
 197    0.00027565904520149
 198    -0.0016591961870594
 199    0.00093192638628203
 200    -0.00016378244869728
 201    0.00087964028012408
 202    -0.00023023728612628
 203    -0.00036274329214851
 204    -5.5329100031836e-05
 205    -8.6207344476014e-05
 206    0.00028353844027829
 207    -0.00041913848932309
 208    -0.0002782942664467
 209    0.00030780134347947
 210    0.00017736324386656
 211    3.2955130221324e-05
 212    -0.00044657206129083
 213    -0.00026157658298564
 214    -0.00011081618580794
 215    -0.00023267172537357
 216    0.00024453392164602
 217    0.00090653611607064
 218     0.000261220181743
 219    -0.0001965057139972
 220    7.3762052727277e-05
 221    -0.00025067003153081
 222    -5.2028576011622e-05
 223    -0.00017141043981321
 224    0.00044592487160051
 225    -2.7911457057359e-06
 226    -0.00015657936347289
 227    -0.00020099904256852
 228    -7.4215417334625e-05
 229    3.3918161578235e-05
 230    0.00019183469933734
 231    4.9175637552698e-06
 232    -2.0585742851322e-05
 233    1.0486519329192e-05
 234    1.5014424950128e-05
 235    1.7547812486382e-06
 236    -0.00013007365327136
 237    -0.00065731063883757
 238    4.7172881692823e-05
 239    -3.1423265111836e-05
 240    -2.4024099626022e-05
 241    -4.4023609728527e-05
 242    -0.0003114088599828
 243    5.5859579531974e-06
 244    9.2923552971604e-06
 245    -4.2902881394737e-05
 246    7.1294047198537e-05
 247    0.00013381107940113
 248    -1.951639505387e-06
 249    9.0688280678948e-06
 250    1.0014679905135e-05
 251    3.1046935207818e-05
 252    0.00012297169880293
 253    -0.00048823664995973
 254    1.5228481105261e-06
 255    0.00019486393523548
 256    1.1095804114522e-05
 257    -0.00016883783224658
 258    -0.00010202511555243
 259    -0.00015334524345637
 260    -1.7731704434191e-05
 261    -1.133943436889e-05
 262    -1.3434343514841e-05
 263    1.2235996830985e-05
 264    3.9615854542768e-06
 265    -1.6852626120865e-05
 266    -9.9772154973492e-05
 267    9.7309014141163e-06
 268    -1.7619781528696e-05
 269    -8.6280850884091e-06
 270    0.00011922525075947
 271    0.00063823160848759
 272    -1.836961808903e-05
 273    3.5476272290516e-05
 274    6.047713335996e-05
 275    1.0671324946772e-05
 276    0.00034873068145379
 277    2.0647102710918e-05
 278    2.2757348257447e-05
 279    1.7181762772016e-05
 280    3.3462919412149e-05
 281    0.00012851227748033
 282    -0.00048586474475429
 283    -0.000159628221657
 284    2.3457577470968e-05
 285    0.00010272043062174
 286    -1.0359599773726e-05
 287    5.0363141655898e-05
 288    -0.00023921549971373
 289    -2.0417973299813e-05
 290    -3.162691335756e-06
 291    -1.7160667199422e-05
 292    -8.0128940895732e-06
 293    3.5792064574981e-06
 294    -1.9060930865932e-05
 295    -0.00010747850927272
 296    1.2355570337875e-05
 297    -1.3815042966613e-05
 298    -9.9319943408513e-06
 299    9.6411878430484e-06
 300    0.00039920403007959
 301    -1.1939071750482e-05
 302    -1.0311111734874e-05
 303    3.4259839795348e-05
 304    0.00012099768063354
 305    0.00061028978008817
 306    -3.2433644883152e-06
 307    4.6033380925313e-05
 308    5.1020103835512e-05
 309    -5.5898745386302e-05
 310    -0.00018349958016304
 311    0.00046807699061694
 312    7.0497745877873e-05
 313    -0.00010634219679465
 314    -0.00024458894577529
 315    3.0226554410299e-07
 316    0.00015837929070699
 317    0.00012422628006781
 318    -3.0051006659176e-06
 319    1.2027413040381e-07
 320    1.0375096485307e-05
 321    -2.412728343632e-05
 322    1.4923163965172e-07
 323    6.8562737216781e-05
 324    0.00017425766551666
 325    -2.6266166160791e-06
 326    3.5069096205049e-06
 327    1.1534961427357e-05
 328    -4.372463929417e-05
 329    -0.00042544894122311
 330    -3.0550102220389e-05
 331    -2.7338599713302e-05
 332    -3.7584815778097e-05
 333    -0.00014446327657366
 334    -0.00063483086117179
 335    2.4178001673939e-05
 336    -3.7152710038571e-05
 337    -6.0776837503039e-06