[Molden Format]
made by pyscf v[2.1.1]
[Atoms] (AU)
Cr   1   24     1.56143912275337    -2.46507591990239    -1.82404491365355
Cr   2   24    -1.56139565905251     2.46513072196000     1.82399011159594
O   3   8     0.00002078698737     0.00002834589187    -0.00002645616574
N   4   7     5.12832174930954    -1.10581670549011    -0.60767356069801
H   5   1     6.65216855026694    -1.66292686427314    -1.66487895135981
H   6   1     5.63710405218294    -1.59213394419468     1.18765885421890
H   7   1     5.20084187906585     0.81566059741989    -0.65509245834172
N   8   7     1.71230729763415    -0.02251608677419    -4.99594076510539
H   9   1     0.29795878723855     1.27247165241550    -4.90823668593820
H   10   1     1.50271021425414    -0.85583806455427    -6.73026148236459
H   11   1     3.34039895052705     0.99863710888315    -5.18656310846864
N   12   7     1.41057094787259    -4.90763575303059     1.34785282752440
H   13   1     1.64193389675534    -6.79355407945465     0.97314659318890
H   14   1    -0.29048681014202    -4.81040367474334     2.24006056107205
H   15   1     2.72468082571676    -4.56691435331926     2.71738081369757
N   16   7    -2.00544350380280    -3.82433513431467    -3.04041437688297
H   17   1    -2.87205678671934    -5.05516478184926    -1.83221042023780
H   18   1    -2.03637832046193    -4.76397121413665    -4.73247136936628
H   19   1    -3.24475802163669    -2.37551046050250    -3.28123540501917
N   20   7     3.37923471211299    -5.33493873459111    -3.94755661599306
H   21   1     4.17102617885350    -4.76109883042731    -5.61685374703210
H   22   1     2.26176595533881    -6.82326057413281    -4.47610923358166
H   23   1     4.85383336053810    -6.19899521806112    -3.03922195969837
N   24   7    -5.12827828560868     1.10587339727385     0.60762064836653
H   25   1    -5.15408816501799    -0.81544705836782     0.54662784797006
H   26   1    -5.69743166898356     1.68113626520945    -1.14337690194197
H   27   1    -6.63528195761783     1.56841410187914     1.73267665553083
N   28   7    -1.71226383393328     0.02257088883181     4.99588785277390
H   29   1    -1.62991523860311     0.86667375415253     6.73575491620870
H   30   1    -0.22416876152653    -1.19157625647512     4.98456461383551
H   31   1    -3.28782110056328    -1.08746368536834     5.11339858210385
N   32   7     2.00548696750367     3.82438993637228     3.04035957482536
H   33   1     2.05186651577887     4.68410571893416     4.77402266739321
H   34   1     2.83712330958063     5.12208376337235     1.87805706574587
H   35   1     3.26582090902109     2.38241174030942     3.19051154350492
N   36   7    -1.41052748417173     4.90769055508820    -1.34790762958202
H   37   1    -1.75003190025884     6.78104976168840    -0.99229329828299
H   38   1    -2.65834387984003     4.49309409198925    -2.75785496783350
H   39   1     0.32278033988471     4.89894112313146    -2.18344058692784
N   40   7    -3.37919124841212     5.33499353664873     3.94750181393545
H   41   1    -2.26357064378777     6.83195331430581     4.45515784003860
H   42   1    -4.15358022727151     4.76963661305810     5.62761006813313
H   43   1    -4.86681766873998     6.18449345978121     3.04686590187224
[GTO]
1 0
 s    6 1.00
          51528.086349  0.0017695545768669
          7737.2103487   0.013556436258096
           1760.374847   0.067162645785071
          496.87706544    0.23295905918518
          161.46520598    0.47040576982722
          55.466352268    0.35733072606876
 s    3 1.00
          107.54732999   -0.10605255446629
          12.408671897    0.62543981484169
          5.0423628826    0.44878820793655
 s    3 1.00
          8.5461640165   -0.21819012081133
          1.3900441221    0.70422525667731
         0.56066602876    0.42488555412558
 s    1 1.00
        0.071483705972                   1
 s    1 1.00
        0.028250687604                   1
 p    5 1.00
          640.48536096  0.0093555063746755
          150.69711194   0.068993338492216
          47.503755296     0.2634118959318
          16.934120165    0.51034501651775
           6.240968059    0.33195512953954
 p    3 1.00
          3.0885463206    0.32917682676976
          1.1791047769    0.55491385190365
         0.43369774432    0.23818412855984
 p    1 1.00
              0.120675                   1
 d    4 1.00
          27.559479426   0.036950140313562
          7.4687020327    0.18821519783039
          2.4345903574    0.44641244239929
         0.78244754808     0.5681617303244
 d    1 1.00
         0.21995774311                   1
 f    1 1.00
                 1.147                   1

2 0
 s    6 1.00
          51528.086349  0.0017695545768669
          7737.2103487   0.013556436258096
           1760.374847   0.067162645785071
          496.87706544    0.23295905918518
          161.46520598    0.47040576982722
          55.466352268    0.35733072606876
 s    3 1.00
          107.54732999   -0.10605255446629
          12.408671897    0.62543981484169
          5.0423628826    0.44878820793655
 s    3 1.00
          8.5461640165   -0.21819012081133
          1.3900441221    0.70422525667731
         0.56066602876    0.42488555412558
 s    1 1.00
        0.071483705972                   1
 s    1 1.00
        0.028250687604                   1
 p    5 1.00
          640.48536096  0.0093555063746755
          150.69711194   0.068993338492216
          47.503755296     0.2634118959318
          16.934120165    0.51034501651775
           6.240968059    0.33195512953954
 p    3 1.00
          3.0885463206    0.32917682676976
          1.1791047769    0.55491385190365
         0.43369774432    0.23818412855984
 p    1 1.00
              0.120675                   1
 d    4 1.00
          27.559479426   0.036950140313562
          7.4687020327    0.18821519783039
          2.4345903574    0.44641244239929
         0.78244754808     0.5681617303244
 d    1 1.00
         0.21995774311                   1
 f    1 1.00
                 1.147                   1

3 0
 s    5 1.00
          2266.1767785  -0.0053893503921743
          340.87010191   -0.04023472138896
          77.363135167   -0.18008184205526
           21.47964494   -0.46828857657651
          6.6589433124   -0.44692617160187
 s    1 1.00
         0.80975975668                   1
 s    1 1.00
         0.25530772234                   1
 p    3 1.00
          17.721504317   0.062630248763161
           3.863550544    0.33331138482352
          1.0480920883    0.74148638308122
 p    1 1.00
         0.27641544411                   1
 d    1 1.00
                   1.2                   1

4 0
 s    5 1.00
          1712.8415853  -0.0054477995804909
          257.64812677  -0.040627174632423
          58.458245853   -0.18111962250584
          16.198367905   -0.46843975563173
          5.0052600809   -0.44616846289231
 s    1 1.00
         0.58731856571                   1
 s    1 1.00
         0.18764592253                   1
 p    3 1.00
          13.571470233  -0.058848116969522
          2.9257372874   -0.32024624762471
         0.79927750754   -0.75328226520436
 p    1 1.00
         0.21954348034                   1
 d    1 1.00
                     1                   1

5 0
 s    3 1.00
             13.010701   0.033485484812989
             1.9622572    0.23472187088125
            0.44453796    0.81377028525955
 s    1 1.00
            0.12194962                   1
 p    1 1.00
                   0.8                   1

6 0
 s    3 1.00
             13.010701   0.033485484812989
             1.9622572    0.23472187088125
            0.44453796    0.81377028525955
 s    1 1.00
            0.12194962                   1
 p    1 1.00
                   0.8                   1

7 0
 s    3 1.00
             13.010701   0.033485484812989
             1.9622572    0.23472187088125
            0.44453796    0.81377028525955
 s    1 1.00
            0.12194962                   1
 p    1 1.00
                   0.8                   1

8 0
 s    5 1.00
          1712.8415853  -0.0054477995804909
          257.64812677  -0.040627174632423
          58.458245853   -0.18111962250584
          16.198367905   -0.46843975563173
          5.0052600809   -0.44616846289231
 s    1 1.00
         0.58731856571                   1
 s    1 1.00
         0.18764592253                   1
 p    3 1.00
          13.571470233  -0.058848116969522
          2.9257372874   -0.32024624762471
         0.79927750754   -0.75328226520436
 p    1 1.00
         0.21954348034                   1
 d    1 1.00
                     1                   1

9 0
 s    3 1.00
             13.010701   0.033485484812989
             1.9622572    0.23472187088125
            0.44453796    0.81377028525955
 s    1 1.00
            0.12194962                   1
 p    1 1.00
                   0.8                   1

10 0
 s    3 1.00
             13.010701   0.033485484812989
             1.9622572    0.23472187088125
            0.44453796    0.81377028525955
 s    1 1.00
            0.12194962                   1
 p    1 1.00
                   0.8                   1

11 0
 s    3 1.00
             13.010701   0.033485484812989
             1.9622572    0.23472187088125
            0.44453796    0.81377028525955
 s    1 1.00
            0.12194962                   1
 p    1 1.00
                   0.8                   1

12 0
 s    5 1.00
          1712.8415853  -0.0054477995804909
          257.64812677  -0.040627174632423
          58.458245853   -0.18111962250584
          16.198367905   -0.46843975563173
          5.0052600809   -0.44616846289231
 s    1 1.00
         0.58731856571                   1
 s    1 1.00
         0.18764592253                   1
 p    3 1.00
          13.571470233  -0.058848116969522
          2.9257372874   -0.32024624762471
         0.79927750754   -0.75328226520436
 p    1 1.00
         0.21954348034                   1
 d    1 1.00
                     1                   1

13 0
 s    3 1.00
             13.010701   0.033485484812989
             1.9622572    0.23472187088125
            0.44453796    0.81377028525955
 s    1 1.00
            0.12194962                   1
 p    1 1.00
                   0.8                   1

14 0
 s    3 1.00
             13.010701   0.033485484812989
             1.9622572    0.23472187088125
            0.44453796    0.81377028525955
 s    1 1.00
            0.12194962                   1
 p    1 1.00
                   0.8                   1

15 0
 s    3 1.00
             13.010701   0.033485484812989
             1.9622572    0.23472187088125
            0.44453796    0.81377028525955
 s    1 1.00
            0.12194962                   1
 p    1 1.00
                   0.8                   1

16 0
 s    5 1.00
          1712.8415853  -0.0054477995804909
          257.64812677  -0.040627174632423
          58.458245853   -0.18111962250584
          16.198367905   -0.46843975563173
          5.0052600809   -0.44616846289231
 s    1 1.00
         0.58731856571                   1
 s    1 1.00
         0.18764592253                   1
 p    3 1.00
          13.571470233  -0.058848116969522
          2.9257372874   -0.32024624762471
         0.79927750754   -0.75328226520436
 p    1 1.00
         0.21954348034                   1
 d    1 1.00
                     1                   1

17 0
 s    3 1.00
             13.010701   0.033485484812989
             1.9622572    0.23472187088125
            0.44453796    0.81377028525955
 s    1 1.00
            0.12194962                   1
 p    1 1.00
                   0.8                   1

18 0
 s    3 1.00
             13.010701   0.033485484812989
             1.9622572    0.23472187088125
            0.44453796    0.81377028525955
 s    1 1.00
            0.12194962                   1
 p    1 1.00
                   0.8                   1

19 0
 s    3 1.00
             13.010701   0.033485484812989
             1.9622572    0.23472187088125
            0.44453796    0.81377028525955
 s    1 1.00
            0.12194962                   1
 p    1 1.00
                   0.8                   1

20 0
 s    5 1.00
          1712.8415853  -0.0054477995804909
          257.64812677  -0.040627174632423
          58.458245853   -0.18111962250584
          16.198367905   -0.46843975563173
          5.0052600809   -0.44616846289231
 s    1 1.00
         0.58731856571                   1
 s    1 1.00
         0.18764592253                   1
 p    3 1.00
          13.571470233  -0.058848116969522
          2.9257372874   -0.32024624762471
         0.79927750754   -0.75328226520436
 p    1 1.00
         0.21954348034                   1
 d    1 1.00
                     1                   1

21 0
 s    3 1.00
             13.010701   0.033485484812989
             1.9622572    0.23472187088125
            0.44453796    0.81377028525955
 s    1 1.00
            0.12194962                   1
 p    1 1.00
                   0.8                   1

22 0
 s    3 1.00
             13.010701   0.033485484812989
             1.9622572    0.23472187088125
            0.44453796    0.81377028525955
 s    1 1.00
            0.12194962                   1
 p    1 1.00
                   0.8                   1

23 0
 s    3 1.00
             13.010701   0.033485484812989
             1.9622572    0.23472187088125
            0.44453796    0.81377028525955
 s    1 1.00
            0.12194962                   1
 p    1 1.00
                   0.8                   1

24 0
 s    5 1.00
          1712.8415853  -0.0054477995804909
          257.64812677  -0.040627174632423
          58.458245853   -0.18111962250584
          16.198367905   -0.46843975563173
          5.0052600809   -0.44616846289231
 s    1 1.00
         0.58731856571                   1
 s    1 1.00
         0.18764592253                   1
 p    3 1.00
          13.571470233  -0.058848116969522
          2.9257372874   -0.32024624762471
         0.79927750754   -0.75328226520436
 p    1 1.00
         0.21954348034                   1
 d    1 1.00
                     1                   1

25 0
 s    3 1.00
             13.010701   0.033485484812989
             1.9622572    0.23472187088125
            0.44453796    0.81377028525955
 s    1 1.00
            0.12194962                   1
 p    1 1.00
                   0.8                   1

26 0
 s    3 1.00
             13.010701   0.033485484812989
             1.9622572    0.23472187088125
            0.44453796    0.81377028525955
 s    1 1.00
            0.12194962                   1
 p    1 1.00
                   0.8                   1

27 0
 s    3 1.00
             13.010701   0.033485484812989
             1.9622572    0.23472187088125
            0.44453796    0.81377028525955
 s    1 1.00
            0.12194962                   1
 p    1 1.00
                   0.8                   1

28 0
 s    5 1.00
          1712.8415853  -0.0054477995804909
          257.64812677  -0.040627174632423
          58.458245853   -0.18111962250584
          16.198367905   -0.46843975563173
          5.0052600809   -0.44616846289231
 s    1 1.00
         0.58731856571                   1
 s    1 1.00
         0.18764592253                   1
 p    3 1.00
          13.571470233  -0.058848116969522
          2.9257372874   -0.32024624762471
         0.79927750754   -0.75328226520436
 p    1 1.00
         0.21954348034                   1
 d    1 1.00
                     1                   1

29 0
 s    3 1.00
             13.010701   0.033485484812989
             1.9622572    0.23472187088125
            0.44453796    0.81377028525955
 s    1 1.00
            0.12194962                   1
 p    1 1.00
                   0.8                   1

30 0
 s    3 1.00
             13.010701   0.033485484812989
             1.9622572    0.23472187088125
            0.44453796    0.81377028525955
 s    1 1.00
            0.12194962                   1
 p    1 1.00
                   0.8                   1

31 0
 s    3 1.00
             13.010701   0.033485484812989
             1.9622572    0.23472187088125
            0.44453796    0.81377028525955
 s    1 1.00
            0.12194962                   1
 p    1 1.00
                   0.8                   1

32 0
 s    5 1.00
          1712.8415853  -0.0054477995804909
          257.64812677  -0.040627174632423
          58.458245853   -0.18111962250584
          16.198367905   -0.46843975563173
          5.0052600809   -0.44616846289231
 s    1 1.00
         0.58731856571                   1
 s    1 1.00
         0.18764592253                   1
 p    3 1.00
          13.571470233  -0.058848116969522
          2.9257372874   -0.32024624762471
         0.79927750754   -0.75328226520436
 p    1 1.00
         0.21954348034                   1
 d    1 1.00
                     1                   1

33 0
 s    3 1.00
             13.010701   0.033485484812989
             1.9622572    0.23472187088125
            0.44453796    0.81377028525955
 s    1 1.00
            0.12194962                   1
 p    1 1.00
                   0.8                   1

34 0
 s    3 1.00
             13.010701   0.033485484812989
             1.9622572    0.23472187088125
            0.44453796    0.81377028525955
 s    1 1.00
            0.12194962                   1
 p    1 1.00
                   0.8                   1

35 0
 s    3 1.00
             13.010701   0.033485484812989
             1.9622572    0.23472187088125
            0.44453796    0.81377028525955
 s    1 1.00
            0.12194962                   1
 p    1 1.00
                   0.8                   1

36 0
 s    5 1.00
          1712.8415853  -0.0054477995804909
          257.64812677  -0.040627174632423
          58.458245853   -0.18111962250584
          16.198367905   -0.46843975563173
          5.0052600809   -0.44616846289231
 s    1 1.00
         0.58731856571                   1
 s    1 1.00
         0.18764592253                   1
 p    3 1.00
          13.571470233  -0.058848116969522
          2.9257372874   -0.32024624762471
         0.79927750754   -0.75328226520436
 p    1 1.00
         0.21954348034                   1
 d    1 1.00
                     1                   1

37 0
 s    3 1.00
             13.010701   0.033485484812989
             1.9622572    0.23472187088125
            0.44453796    0.81377028525955
 s    1 1.00
            0.12194962                   1
 p    1 1.00
                   0.8                   1

38 0
 s    3 1.00
             13.010701   0.033485484812989
             1.9622572    0.23472187088125
            0.44453796    0.81377028525955
 s    1 1.00
            0.12194962                   1
 p    1 1.00
                   0.8                   1

39 0
 s    3 1.00
             13.010701   0.033485484812989
             1.9622572    0.23472187088125
            0.44453796    0.81377028525955
 s    1 1.00
            0.12194962                   1
 p    1 1.00
                   0.8                   1

40 0
 s    5 1.00
          1712.8415853  -0.0054477995804909
          257.64812677  -0.040627174632423
          58.458245853   -0.18111962250584
          16.198367905   -0.46843975563173
          5.0052600809   -0.44616846289231
 s    1 1.00
         0.58731856571                   1
 s    1 1.00
         0.18764592253                   1
 p    3 1.00
          13.571470233  -0.058848116969522
          2.9257372874   -0.32024624762471
         0.79927750754   -0.75328226520436
 p    1 1.00
         0.21954348034                   1
 d    1 1.00
                     1                   1

41 0
 s    3 1.00
             13.010701   0.033485484812989
             1.9622572    0.23472187088125
            0.44453796    0.81377028525955
 s    1 1.00
            0.12194962                   1
 p    1 1.00
                   0.8                   1

42 0
 s    3 1.00
             13.010701   0.033485484812989
             1.9622572    0.23472187088125
            0.44453796    0.81377028525955
 s    1 1.00
            0.12194962                   1
 p    1 1.00
                   0.8                   1

43 0
 s    3 1.00
             13.010701   0.033485484812989
             1.9622572    0.23472187088125
            0.44453796    0.81377028525955
 s    1 1.00
            0.12194962                   1
 p    1 1.00
                   0.8                   1

[5d]
[7f]
[9g]

[MO]
 Sym= A
 Ene=               0
 Spin= Alpha
 Occup=    1.00000
   1    -8.2813091262571e-06
   2    1.8272054875451e-05
   3    -0.00014363216862531
   4    0.00033608935299465
   5    -6.5925068294691e-05
   6    7.9272008948198e-05
   7    7.6143710302782e-05
   8    -6.8052414990311e-05
   9    -0.00023571349173169
  10    -0.00025419199623866
  11    0.00020647243751066
  12    -0.0001679103381107
  13    -4.8730743434449e-05
  14    -0.00011673415812745
  15      0.06854592698125
  16    -0.043889449833459
  17    -0.087336976197652
  18    -0.076899611730314
  19    -0.040458761743914
  20      0.05055991292165
  21    -0.032454181169868
  22    -0.064256746503858
  23    -0.056207441688408
  24    -0.029773504746988
  25    -0.00037615893438722
  26    0.00032135598893002
  27    0.00012125748324096
  28    -0.00021832945381742
  29    4.3829587882235e-05
  30    -0.00041772425062337
  31    0.00023362746929602
  32    -7.8459957650527e-06
  33    1.7190812295603e-05
  34    -0.00013706296911544
  35    0.0002382371421814
  36    0.00019961289499179
  37    6.1680073795881e-05
  38    9.7823635987015e-05
  39    -4.8833125910479e-05
  40    -0.00020009510409659
  41    -0.0002912400540661
  42    0.00016676845513432
  43    -0.00011501678801578
  44    -8.8209437946306e-05
  45    -5.3091028352914e-05
  46    -0.066340862720834
  47     0.043772732873297
  48     0.083197559314712
  49     0.075424208989382
  50     0.040697514791477
  51    -0.048980182382658
  52     0.032395829468796
  53     0.061167170805377
  54     0.055173840725843
  55     0.030041097856469
  56    -0.0003679336642933
  57    0.00030922623019847
  58    0.00011705382388167
  59    -0.00021562804323378
  60    4.2539793146817e-05
  61    -0.00040463973753193
  62    0.00023018697459695
  63    -0.0011683829473348
  64    -0.0030704315456724
  65    -0.0017950541406654
  66    7.1412297026091e-05
  67    9.7294380471428e-05
  68    -6.7646279131907e-05
  69    0.00016652655370708
  70    0.00027711938833507
  71    -0.00026556664403408
  72    1.438999120825e-05
  73    3.0855459696756e-05
  74    -6.4588787799817e-05
  75    1.3330788966901e-05
  76    3.9699588892138e-05
  77    -0.043051386568565
  78     -0.10970334077802
  79    -0.092383673327662
  80     -0.15129855956509
  81       -0.061936591692
  82    -0.051663892648983
  83      0.10429215783148
  84     0.047923563232231
  85     0.037824764008946
  86    0.0001608347971261
  87    -0.00013539042106352
  88    -0.00036825646667343
  89    -0.00015578412506965
  90    -0.00012041520717424
  91     0.018095251397777
  92     0.011726797298137
  93    0.0028180807965455
  94    0.0029475250399881
  95    0.0032922226387832
  96     0.017706006709892
  97     0.013591522104429
  98    0.0045595502652245
  99    0.0021910937642314
 100    -0.00067412762111486
 101     0.012209069993256
 102     0.013283468626652
 103    0.0050957657665284
 104    0.00029766655606574
 105    0.0012622065044944
 106     0.043259618528873
 107      0.10989640147123
 108     0.094012679120894
 109    0.0025576741218145
 110      0.10868385270272
 111     -0.13505853899033
 112    0.0011403312295123
 113    -0.080335458046327
 114     0.092855756346842
 115    0.00016444521603254
 116    -0.00011256091174921
 117    -0.00026449160113957
 118    -0.0002904596769377
 119    -0.0001892032693457
 120    -0.010988445996818
 121    -0.014871114822129
 122    -0.0011421289277665
 123    -0.0021779459334901
 124    0.0046405102591131
 125    -0.018931846412428
 126    -0.011801637769277
 127    -0.00036441416640761
 128    -0.0047797787211827
 129    0.0018865769697631
 130    -0.018361088789485
 131    -0.012272692914097
 132    0.0017905588156398
 133    -0.0019585869008183
 134    0.0043240969169573
 135     0.043520204705732
 136       0.1108943041502
 137     0.093411605764626
 138    -0.009836303151644
 139     -0.10437068903549
 140       0.1380604833499
 141     0.010249369842323
 142     0.070457572357587
 143     -0.09927090445241
 144    0.00028725127817727
 145    -0.00018213350861508
 146    -0.00017132985580162
 147    -0.00022444286653703
 148    -0.00013455256750646
 149    -0.018223630723442
 150    -0.011698901108534
 151    0.00070933724537037
 152    0.00068495232750926
 153    -0.0051920220624862
 154    -0.012666360904674
 155    -0.013631816233684
 156    -0.0010937704608378
 157    0.0039168426420128
 158    -0.0034456644283342
 159    -0.017686779206165
 160     -0.01375318222608
 161    0.0016021627025542
 162    0.0041571780637059
 163    -0.0026243360065265
 164    -0.042821129270143
 165     -0.10886174111345
 166    -0.092775342980454
 167      0.15438615257953
 168     0.053888567165847
 169     0.051143947447766
 170     -0.11147053350629
 171    -0.033921400149767
 172    -0.033975423432371
 173    0.00022849259360271
 174    -0.00010790207542786
 175    -0.00028388932809749
 176    -0.00029274313472876
 177    -4.4878839342882e-05
 178     0.017617547866038
 179     0.012469029629571
 180    -0.0037661890128701
 181    -0.00063646377043756
 182    -0.003293091197114
 183     0.018677627006875
 184      0.01176587994978
 185    -0.0050821730558428
 186    -0.00035033266852082
 187    0.00080303540576901
 188     0.011502807226912
 189     0.013880216651192
 190    -0.0038050926390186
 191    -0.0030106338558372
 192    -0.0018756675455959
 193    -0.00050285799795543
 194    -0.0012360385627613
 195    -0.0011864963761075
 196    -0.00063199475303868
 197    0.0016894650658532
 198    0.00081972058976225
 199    -0.00062470152665005
 200    -0.0026510661741656
 201    0.0002685016173458
 202    0.00029329470856653
 203    -0.00018712467597291
 204    -0.00038031342273279
 205    -0.0003431422755388
 206    -0.00017712295247001
 207    0.0017906095996643
 208    0.00090110594031538
 209    -0.00034633308726687
 210    0.00047190219691944
 211    -9.0763463269092e-05
 212    -0.0012237442562162
 213    -0.00059813510929722
 214    0.0005685998422063
 215    -0.00035122988717268
 216    3.0689109876081e-05
 217    4.072375318779e-05
 218    6.588705209575e-06
 219    -0.00036001513000131
 220    -0.0004625900935622
 221    0.00013440550595465
 222     0.042274339710907
 223      0.10771994987467
 224     0.090688608807468
 225     -0.14858633781908
 226    -0.061225662781485
 227    -0.050663791900231
 228      0.10229519136305
 229     0.047509589359129
 230     0.037099468882861
 231    -0.00014782186644881
 232    0.00013198901386556
 233    0.00034970866622436
 234    0.00016496390861447
 235    0.00011968145030636
 236    -0.011668256502285
 237    -0.013195310552159
 238     0.005019659140909
 239    0.0003600980331872
 240    0.0011779460241119
 241    -0.017789704946125
 242     -0.01318232959896
 243    0.0043794295105774
 244    0.0023259097077458
 245    -0.00068952257612727
 246    -0.017738037984868
 247    -0.011587422248841
 248     0.002784729461131
 249    0.0027426491261989
 250    0.0033030421873552
 251    -0.041578222863247
 252     -0.10568515463437
 253    -0.090182519587066
 254     0.002539968147135
 255      0.10419438884828
 256     -0.12986502669518
 257    0.0011175615377381
 258    -0.077081205969262
 259      0.08925809585941
 260    -0.00016156422122502
 261    0.00011075199074441
 262    0.00024643655750377
 263    0.00028616328543419
 264    0.00018928902472537
 265      0.01821110912748
 266     0.011376627460177
 267    -0.00016503019149198
 268    -0.0046461831020498
 269    0.0017952141095598
 270     0.010825288104661
 271     0.013902397326382
 272    -0.0011579215533098
 273    -0.0020940164321425
 274    0.0044337192346778
 275     0.017406632936687
 276     0.011856343431373
 277    0.0015720503849054
 278    -0.0017712948659586
 279    0.0042708177506726
 280     0.042072172222388
 281      0.10694930638338
 282     0.091193599104037
 283       0.1518907227427
 284     0.052765825907524
 285     0.050193919899839
 286     -0.10957729317886
 287    -0.033159143658831
 288    -0.033247224607302
 289    -0.00022019473164462
 290    0.00010745479622226
 291    0.0002709807739547
 292    0.00028074854342515
 293    5.5277539848821e-05
 294    -0.018397404175222
 295    -0.011537568117975
 296    -0.0049532352402524
 297    -0.0004628410040155
 298    0.00084767335795923
 299     -0.01752450822307
 300    -0.012218971134619
 301    -0.0037427133847433
 302    -0.0004841563122497
 303    -0.003216514415477
 304    -0.011096657183342
 305    -0.013970001934632
 306    -0.0037456302593259
 307    -0.0029223122630294
 308    -0.0018784716379042
 309    -0.041826916280938
 310     -0.10664716289327
 311    -0.089636267068159
 312    -0.0090605757789081
 313     -0.10024364255534
 314      0.13274185769994
 315    0.0094589714658666
 316     0.067586930115589
 317    -0.095464293085875
 318    -0.00027476131781699
 319    0.00018980779657671
 320    0.00015539337408183
 321    0.00022561890733268
 322    0.00014080827723473
 323     0.017535807530559
 324     0.011192267593903
 325    0.00083000393906713
 326    0.00065895033917346
 327    -0.005001922976775
 328     0.016606295871538
 329     0.013370238298317
 330    0.0013639910268654
 331    0.0040805240819898
 332    -0.0025186459638923
 333       0.0125693379847
 334     0.012981267290117
 335    -0.0011376903403748
 336    0.0037211293072866
 337    -0.003315631876546
 338    -0.00049846282847006
 339    -0.0012386874791599
 340    -0.0011288233213724
 341    0.0011122880837028
 342    -0.0010873888659231
 343    -0.0012178714841037