[Molden Format]
made by pyscf v[2.1.1]
[Atoms] (AU)
Cr   1   24     1.56143912275337    -2.46507591990239    -1.82404491365355
Cr   2   24    -1.56139565905251     2.46513072196000     1.82399011159594
O   3   8     0.00002078698737     0.00002834589187    -0.00002645616574
N   4   7     5.12832174930954    -1.10581670549011    -0.60767356069801
H   5   1     6.65216855026694    -1.66292686427314    -1.66487895135981
H   6   1     5.63710405218294    -1.59213394419468     1.18765885421890
H   7   1     5.20084187906585     0.81566059741989    -0.65509245834172
N   8   7     1.71230729763415    -0.02251608677419    -4.99594076510539
H   9   1     0.29795878723855     1.27247165241550    -4.90823668593820
H   10   1     1.50271021425414    -0.85583806455427    -6.73026148236459
H   11   1     3.34039895052705     0.99863710888315    -5.18656310846864
N   12   7     1.41057094787259    -4.90763575303059     1.34785282752440
H   13   1     1.64193389675534    -6.79355407945465     0.97314659318890
H   14   1    -0.29048681014202    -4.81040367474334     2.24006056107205
H   15   1     2.72468082571676    -4.56691435331926     2.71738081369757
N   16   7    -2.00544350380280    -3.82433513431467    -3.04041437688297
H   17   1    -2.87205678671934    -5.05516478184926    -1.83221042023780
H   18   1    -2.03637832046193    -4.76397121413665    -4.73247136936628
H   19   1    -3.24475802163669    -2.37551046050250    -3.28123540501917
N   20   7     3.37923471211299    -5.33493873459111    -3.94755661599306
H   21   1     4.17102617885350    -4.76109883042731    -5.61685374703210
H   22   1     2.26176595533881    -6.82326057413281    -4.47610923358166
H   23   1     4.85383336053810    -6.19899521806112    -3.03922195969837
N   24   7    -5.12827828560868     1.10587339727385     0.60762064836653
H   25   1    -5.15408816501799    -0.81544705836782     0.54662784797006
H   26   1    -5.69743166898356     1.68113626520945    -1.14337690194197
H   27   1    -6.63528195761783     1.56841410187914     1.73267665553083
N   28   7    -1.71226383393328     0.02257088883181     4.99588785277390
H   29   1    -1.62991523860311     0.86667375415253     6.73575491620870
H   30   1    -0.22416876152653    -1.19157625647512     4.98456461383551
H   31   1    -3.28782110056328    -1.08746368536834     5.11339858210385
N   32   7     2.00548696750367     3.82438993637228     3.04035957482536
H   33   1     2.05186651577887     4.68410571893416     4.77402266739321
H   34   1     2.83712330958063     5.12208376337235     1.87805706574587
H   35   1     3.26582090902109     2.38241174030942     3.19051154350492
N   36   7    -1.41052748417173     4.90769055508820    -1.34790762958202
H   37   1    -1.75003190025884     6.78104976168840    -0.99229329828299
H   38   1    -2.65834387984003     4.49309409198925    -2.75785496783350
H   39   1     0.32278033988471     4.89894112313146    -2.18344058692784
N   40   7    -3.37919124841212     5.33499353664873     3.94750181393545
H   41   1    -2.26357064378777     6.83195331430581     4.45515784003860
H   42   1    -4.15358022727151     4.76963661305810     5.62761006813313
H   43   1    -4.86681766873998     6.18449345978121     3.04686590187224
[GTO]
1 0
 s    6 1.00
          51528.086349  0.0017695545768669
          7737.2103487   0.013556436258096
           1760.374847   0.067162645785071
          496.87706544    0.23295905918518
          161.46520598    0.47040576982722
          55.466352268    0.35733072606876
 s    3 1.00
          107.54732999   -0.10605255446629
          12.408671897    0.62543981484169
          5.0423628826    0.44878820793655
 s    3 1.00
          8.5461640165   -0.21819012081133
          1.3900441221    0.70422525667731
         0.56066602876    0.42488555412558
 s    1 1.00
        0.071483705972                   1
 s    1 1.00
        0.028250687604                   1
 p    5 1.00
          640.48536096  0.0093555063746755
          150.69711194   0.068993338492216
          47.503755296     0.2634118959318
          16.934120165    0.51034501651775
           6.240968059    0.33195512953954
 p    3 1.00
          3.0885463206    0.32917682676976
          1.1791047769    0.55491385190365
         0.43369774432    0.23818412855984
 p    1 1.00
              0.120675                   1
 d    4 1.00
          27.559479426   0.036950140313562
          7.4687020327    0.18821519783039
          2.4345903574    0.44641244239929
         0.78244754808     0.5681617303244
 d    1 1.00
         0.21995774311                   1
 f    1 1.00
                 1.147                   1

2 0
 s    6 1.00
          51528.086349  0.0017695545768669
          7737.2103487   0.013556436258096
           1760.374847   0.067162645785071
          496.87706544    0.23295905918518
          161.46520598    0.47040576982722
          55.466352268    0.35733072606876
 s    3 1.00
          107.54732999   -0.10605255446629
          12.408671897    0.62543981484169
          5.0423628826    0.44878820793655
 s    3 1.00
          8.5461640165   -0.21819012081133
          1.3900441221    0.70422525667731
         0.56066602876    0.42488555412558
 s    1 1.00
        0.071483705972                   1
 s    1 1.00
        0.028250687604                   1
 p    5 1.00
          640.48536096  0.0093555063746755
          150.69711194   0.068993338492216
          47.503755296     0.2634118959318
          16.934120165    0.51034501651775
           6.240968059    0.33195512953954
 p    3 1.00
          3.0885463206    0.32917682676976
          1.1791047769    0.55491385190365
         0.43369774432    0.23818412855984
 p    1 1.00
              0.120675                   1
 d    4 1.00
          27.559479426   0.036950140313562
          7.4687020327    0.18821519783039
          2.4345903574    0.44641244239929
         0.78244754808     0.5681617303244
 d    1 1.00
         0.21995774311                   1
 f    1 1.00
                 1.147                   1

3 0
 s    5 1.00
          2266.1767785  -0.0053893503921743
          340.87010191   -0.04023472138896
          77.363135167   -0.18008184205526
           21.47964494   -0.46828857657651
          6.6589433124   -0.44692617160187
 s    1 1.00
         0.80975975668                   1
 s    1 1.00
         0.25530772234                   1
 p    3 1.00
          17.721504317   0.062630248763161
           3.863550544    0.33331138482352
          1.0480920883    0.74148638308122
 p    1 1.00
         0.27641544411                   1
 d    1 1.00
                   1.2                   1

4 0
 s    5 1.00
          1712.8415853  -0.0054477995804909
          257.64812677  -0.040627174632423
          58.458245853   -0.18111962250584
          16.198367905   -0.46843975563173
          5.0052600809   -0.44616846289231
 s    1 1.00
         0.58731856571                   1
 s    1 1.00
         0.18764592253                   1
 p    3 1.00
          13.571470233  -0.058848116969522
          2.9257372874   -0.32024624762471
         0.79927750754   -0.75328226520436
 p    1 1.00
         0.21954348034                   1
 d    1 1.00
                     1                   1

5 0
 s    3 1.00
             13.010701   0.033485484812989
             1.9622572    0.23472187088125
            0.44453796    0.81377028525955
 s    1 1.00
            0.12194962                   1
 p    1 1.00
                   0.8                   1

6 0
 s    3 1.00
             13.010701   0.033485484812989
             1.9622572    0.23472187088125
            0.44453796    0.81377028525955
 s    1 1.00
            0.12194962                   1
 p    1 1.00
                   0.8                   1

7 0
 s    3 1.00
             13.010701   0.033485484812989
             1.9622572    0.23472187088125
            0.44453796    0.81377028525955
 s    1 1.00
            0.12194962                   1
 p    1 1.00
                   0.8                   1

8 0
 s    5 1.00
          1712.8415853  -0.0054477995804909
          257.64812677  -0.040627174632423
          58.458245853   -0.18111962250584
          16.198367905   -0.46843975563173
          5.0052600809   -0.44616846289231
 s    1 1.00
         0.58731856571                   1
 s    1 1.00
         0.18764592253                   1
 p    3 1.00
          13.571470233  -0.058848116969522
          2.9257372874   -0.32024624762471
         0.79927750754   -0.75328226520436
 p    1 1.00
         0.21954348034                   1
 d    1 1.00
                     1                   1

9 0
 s    3 1.00
             13.010701   0.033485484812989
             1.9622572    0.23472187088125
            0.44453796    0.81377028525955
 s    1 1.00
            0.12194962                   1
 p    1 1.00
                   0.8                   1

10 0
 s    3 1.00
             13.010701   0.033485484812989
             1.9622572    0.23472187088125
            0.44453796    0.81377028525955
 s    1 1.00
            0.12194962                   1
 p    1 1.00
                   0.8                   1

11 0
 s    3 1.00
             13.010701   0.033485484812989
             1.9622572    0.23472187088125
            0.44453796    0.81377028525955
 s    1 1.00
            0.12194962                   1
 p    1 1.00
                   0.8                   1

12 0
 s    5 1.00
          1712.8415853  -0.0054477995804909
          257.64812677  -0.040627174632423
          58.458245853   -0.18111962250584
          16.198367905   -0.46843975563173
          5.0052600809   -0.44616846289231
 s    1 1.00
         0.58731856571                   1
 s    1 1.00
         0.18764592253                   1
 p    3 1.00
          13.571470233  -0.058848116969522
          2.9257372874   -0.32024624762471
         0.79927750754   -0.75328226520436
 p    1 1.00
         0.21954348034                   1
 d    1 1.00
                     1                   1

13 0
 s    3 1.00
             13.010701   0.033485484812989
             1.9622572    0.23472187088125
            0.44453796    0.81377028525955
 s    1 1.00
            0.12194962                   1
 p    1 1.00
                   0.8                   1

14 0
 s    3 1.00
             13.010701   0.033485484812989
             1.9622572    0.23472187088125
            0.44453796    0.81377028525955
 s    1 1.00
            0.12194962                   1
 p    1 1.00
                   0.8                   1

15 0
 s    3 1.00
             13.010701   0.033485484812989
             1.9622572    0.23472187088125
            0.44453796    0.81377028525955
 s    1 1.00
            0.12194962                   1
 p    1 1.00
                   0.8                   1

16 0
 s    5 1.00
          1712.8415853  -0.0054477995804909
          257.64812677  -0.040627174632423
          58.458245853   -0.18111962250584
          16.198367905   -0.46843975563173
          5.0052600809   -0.44616846289231
 s    1 1.00
         0.58731856571                   1
 s    1 1.00
         0.18764592253                   1
 p    3 1.00
          13.571470233  -0.058848116969522
          2.9257372874   -0.32024624762471
         0.79927750754   -0.75328226520436
 p    1 1.00
         0.21954348034                   1
 d    1 1.00
                     1                   1

17 0
 s    3 1.00
             13.010701   0.033485484812989
             1.9622572    0.23472187088125
            0.44453796    0.81377028525955
 s    1 1.00
            0.12194962                   1
 p    1 1.00
                   0.8                   1

18 0
 s    3 1.00
             13.010701   0.033485484812989
             1.9622572    0.23472187088125
            0.44453796    0.81377028525955
 s    1 1.00
            0.12194962                   1
 p    1 1.00
                   0.8                   1

19 0
 s    3 1.00
             13.010701   0.033485484812989
             1.9622572    0.23472187088125
            0.44453796    0.81377028525955
 s    1 1.00
            0.12194962                   1
 p    1 1.00
                   0.8                   1

20 0
 s    5 1.00
          1712.8415853  -0.0054477995804909
          257.64812677  -0.040627174632423
          58.458245853   -0.18111962250584
          16.198367905   -0.46843975563173
          5.0052600809   -0.44616846289231
 s    1 1.00
         0.58731856571                   1
 s    1 1.00
         0.18764592253                   1
 p    3 1.00
          13.571470233  -0.058848116969522
          2.9257372874   -0.32024624762471
         0.79927750754   -0.75328226520436
 p    1 1.00
         0.21954348034                   1
 d    1 1.00
                     1                   1

21 0
 s    3 1.00
             13.010701   0.033485484812989
             1.9622572    0.23472187088125
            0.44453796    0.81377028525955
 s    1 1.00
            0.12194962                   1
 p    1 1.00
                   0.8                   1

22 0
 s    3 1.00
             13.010701   0.033485484812989
             1.9622572    0.23472187088125
            0.44453796    0.81377028525955
 s    1 1.00
            0.12194962                   1
 p    1 1.00
                   0.8                   1

23 0
 s    3 1.00
             13.010701   0.033485484812989
             1.9622572    0.23472187088125
            0.44453796    0.81377028525955
 s    1 1.00
            0.12194962                   1
 p    1 1.00
                   0.8                   1

24 0
 s    5 1.00
          1712.8415853  -0.0054477995804909
          257.64812677  -0.040627174632423
          58.458245853   -0.18111962250584
          16.198367905   -0.46843975563173
          5.0052600809   -0.44616846289231
 s    1 1.00
         0.58731856571                   1
 s    1 1.00
         0.18764592253                   1
 p    3 1.00
          13.571470233  -0.058848116969522
          2.9257372874   -0.32024624762471
         0.79927750754   -0.75328226520436
 p    1 1.00
         0.21954348034                   1
 d    1 1.00
                     1                   1

25 0
 s    3 1.00
             13.010701   0.033485484812989
             1.9622572    0.23472187088125
            0.44453796    0.81377028525955
 s    1 1.00
            0.12194962                   1
 p    1 1.00
                   0.8                   1

26 0
 s    3 1.00
             13.010701   0.033485484812989
             1.9622572    0.23472187088125
            0.44453796    0.81377028525955
 s    1 1.00
            0.12194962                   1
 p    1 1.00
                   0.8                   1

27 0
 s    3 1.00
             13.010701   0.033485484812989
             1.9622572    0.23472187088125
            0.44453796    0.81377028525955
 s    1 1.00
            0.12194962                   1
 p    1 1.00
                   0.8                   1

28 0
 s    5 1.00
          1712.8415853  -0.0054477995804909
          257.64812677  -0.040627174632423
          58.458245853   -0.18111962250584
          16.198367905   -0.46843975563173
          5.0052600809   -0.44616846289231
 s    1 1.00
         0.58731856571                   1
 s    1 1.00
         0.18764592253                   1
 p    3 1.00
          13.571470233  -0.058848116969522
          2.9257372874   -0.32024624762471
         0.79927750754   -0.75328226520436
 p    1 1.00
         0.21954348034                   1
 d    1 1.00
                     1                   1

29 0
 s    3 1.00
             13.010701   0.033485484812989
             1.9622572    0.23472187088125
            0.44453796    0.81377028525955
 s    1 1.00
            0.12194962                   1
 p    1 1.00
                   0.8                   1

30 0
 s    3 1.00
             13.010701   0.033485484812989
             1.9622572    0.23472187088125
            0.44453796    0.81377028525955
 s    1 1.00
            0.12194962                   1
 p    1 1.00
                   0.8                   1

31 0
 s    3 1.00
             13.010701   0.033485484812989
             1.9622572    0.23472187088125
            0.44453796    0.81377028525955
 s    1 1.00
            0.12194962                   1
 p    1 1.00
                   0.8                   1

32 0
 s    5 1.00
          1712.8415853  -0.0054477995804909
          257.64812677  -0.040627174632423
          58.458245853   -0.18111962250584
          16.198367905   -0.46843975563173
          5.0052600809   -0.44616846289231
 s    1 1.00
         0.58731856571                   1
 s    1 1.00
         0.18764592253                   1
 p    3 1.00
          13.571470233  -0.058848116969522
          2.9257372874   -0.32024624762471
         0.79927750754   -0.75328226520436
 p    1 1.00
         0.21954348034                   1
 d    1 1.00
                     1                   1

33 0
 s    3 1.00
             13.010701   0.033485484812989
             1.9622572    0.23472187088125
            0.44453796    0.81377028525955
 s    1 1.00
            0.12194962                   1
 p    1 1.00
                   0.8                   1

34 0
 s    3 1.00
             13.010701   0.033485484812989
             1.9622572    0.23472187088125
            0.44453796    0.81377028525955
 s    1 1.00
            0.12194962                   1
 p    1 1.00
                   0.8                   1

35 0
 s    3 1.00
             13.010701   0.033485484812989
             1.9622572    0.23472187088125
            0.44453796    0.81377028525955
 s    1 1.00
            0.12194962                   1
 p    1 1.00
                   0.8                   1

36 0
 s    5 1.00
          1712.8415853  -0.0054477995804909
          257.64812677  -0.040627174632423
          58.458245853   -0.18111962250584
          16.198367905   -0.46843975563173
          5.0052600809   -0.44616846289231
 s    1 1.00
         0.58731856571                   1
 s    1 1.00
         0.18764592253                   1
 p    3 1.00
          13.571470233  -0.058848116969522
          2.9257372874   -0.32024624762471
         0.79927750754   -0.75328226520436
 p    1 1.00
         0.21954348034                   1
 d    1 1.00
                     1                   1

37 0
 s    3 1.00
             13.010701   0.033485484812989
             1.9622572    0.23472187088125
            0.44453796    0.81377028525955
 s    1 1.00
            0.12194962                   1
 p    1 1.00
                   0.8                   1

38 0
 s    3 1.00
             13.010701   0.033485484812989
             1.9622572    0.23472187088125
            0.44453796    0.81377028525955
 s    1 1.00
            0.12194962                   1
 p    1 1.00
                   0.8                   1

39 0
 s    3 1.00
             13.010701   0.033485484812989
             1.9622572    0.23472187088125
            0.44453796    0.81377028525955
 s    1 1.00
            0.12194962                   1
 p    1 1.00
                   0.8                   1

40 0
 s    5 1.00
          1712.8415853  -0.0054477995804909
          257.64812677  -0.040627174632423
          58.458245853   -0.18111962250584
          16.198367905   -0.46843975563173
          5.0052600809   -0.44616846289231
 s    1 1.00
         0.58731856571                   1
 s    1 1.00
         0.18764592253                   1
 p    3 1.00
          13.571470233  -0.058848116969522
          2.9257372874   -0.32024624762471
         0.79927750754   -0.75328226520436
 p    1 1.00
         0.21954348034                   1
 d    1 1.00
                     1                   1

41 0
 s    3 1.00
             13.010701   0.033485484812989
             1.9622572    0.23472187088125
            0.44453796    0.81377028525955
 s    1 1.00
            0.12194962                   1
 p    1 1.00
                   0.8                   1

42 0
 s    3 1.00
             13.010701   0.033485484812989
             1.9622572    0.23472187088125
            0.44453796    0.81377028525955
 s    1 1.00
            0.12194962                   1
 p    1 1.00
                   0.8                   1

43 0
 s    3 1.00
             13.010701   0.033485484812989
             1.9622572    0.23472187088125
            0.44453796    0.81377028525955
 s    1 1.00
            0.12194962                   1
 p    1 1.00
                   0.8                   1

[5d]
[7f]
[9g]

[MO]
 Sym= A
 Ene=               0
 Spin= Alpha
 Occup=    1.00000
   1    1.7155593545517e-06
   2    -3.905409473109e-06
   3    2.8415090712376e-05
   4    -0.00011039378464461
   5    -0.00012801671957016
   6    -5.4541518009382e-06
   7    -4.2933251245909e-07
   8    -1.2986688003197e-05
   9    1.9473768023189e-05
  10    1.8294639765526e-06
  11    4.5078613497188e-05
  12    -6.9190648112216e-05
  13    -2.6728944261405e-05
  14    -0.00013208762665943
  15    0.00010821256037185
  16    0.00015251343435306
  17    1.4901490146742e-05
  18    3.6205404996521e-05
  19    -9.5122939901373e-05
  20    -0.00013930846457363
  21    -0.00012603523489563
  22    -7.3045484839062e-05
  23    -1.3753915758735e-05
  24    5.0470838307504e-05
  25    -8.5742459702075e-06
  26    -2.0459730984809e-06
  27    -1.3164593297082e-05
  28    5.4301750011004e-06
  29    -6.9704578367006e-07
  30    -1.2149418298167e-06
  31    -6.0949344247437e-07
  32    -9.7126017566591e-06
  33    2.564544335593e-05
  34    -0.00014424515050402
  35    0.00030027162640853
  36    0.00032067509528087
  37    -0.00022385192729175
  38    3.8567432199672e-05
  39    -0.00023983724387674
  40    0.00072862010794476
  41    -0.00012625521284551
  42    0.00077900789167829
  43    -0.0011357888476973
  44    0.00022616758367445
  45    -0.001100397148356
  46     -0.38142320168227
  47       -0.635715021243
  48    -0.075922973327383
  49      -0.1584699052449
  50      0.51078316855588
  51    -0.080991347307911
  52     -0.13504479761931
  53    -0.016152868718889
  54    -0.033732319274006
  55      0.10858043854482
  56    -0.00099041975456066
  57    -0.00085507853929531
  58    -0.00065803163879165
  59    0.0005442716765413
  60    -0.00031852440451401
  61    -0.00080314359386683
  62    -0.00094126658697884
  63    -2.0352770585261e-05
  64    -4.8878111764285e-05
  65    -3.1048837335483e-06
  66    -0.00054729601272183
  67    0.0001879849652515
  68    -0.00074099695864577
  69    -0.00030064491977077
  70    0.00015393708589143
  71    -0.00043015490610972
  72    -0.00042549013706531
  73    -0.00069298461211846
  74    -9.4364958729743e-05
  75    -0.00017213681653883
  76    0.0005574039981664
  77    -5.4285792024741e-05
  78    -0.00018135805692241
  79    0.00046516514868771
  80    5.8126812720076e-06
  81    0.00016301205905563
  82    0.00021188388261419
  83    6.6008432684153e-05
  84    -5.852061811138e-05
  85    -0.00019028872947868
  86    5.3835631829504e-06
  87    -1.9468743209548e-05
  88    1.1340947172658e-05
  89    1.5260665515371e-05
  90    -7.6399291831014e-07
  91    7.0040951402247e-05
  92    0.00016417633194455
  93    1.5079818904168e-08
  94    -7.697949120596e-06
  95    -8.9927809797718e-06
  96    -4.782774100356e-05
  97    -0.00038962725836462
  98    -3.0077812549539e-06
  99    -8.0886668941578e-06
 100    5.0620614736939e-05
 101    -0.00013675115124109
 102    -0.0006148183521181
 103    -4.0561828610137e-05
 104    2.7110083501955e-05
 105    1.7433839252042e-05
 106    2.1355607227383e-05
 107    9.4673390117017e-05
 108    -0.00044440394647577
 109    -1.8150369079409e-05
 110    -0.00015744493401664
 111    -1.2722787759816e-06
 112    0.00019036768883624
 113    9.0821808003964e-05
 114    0.00013872231452214
 115    -1.7533867705644e-05
 116    -1.3530368175267e-05
 117    -1.2401361440819e-05
 118    1.2984141110214e-05
 119    4.0824303395863e-06
 120    9.845814901541e-05
 121    0.00056804912907918
 122    7.956329461268e-06
 123    -3.3583570306385e-05
 124    -6.0449931940872e-05
 125    -3.2488299836389e-06
 126    -6.6571364027729e-05
 127    -8.833051742194e-06
 128    1.7549170286936e-05
 129    1.1979807085586e-05
 130    4.4358772943196e-06
 131    0.00028663488153757
 132    -1.3997370524147e-05
 133    -1.88513447441e-05
 134    -1.7313271207164e-05
 135    -5.5581430932699e-05
 136    -0.00018003131614785
 137    0.00045716616511603
 138    -6.4099941906954e-05
 139    0.00010953166997678
 140    0.00024526853075407
 141    -1.1735724746819e-05
 142    -0.00016481558081161
 143    -0.0001244259010915
 144    -3.3258922152651e-06
 145    -3.1104268382691e-07
 146    9.740185985579e-06
 147    -2.518670461364e-05
 148    2.8170024709807e-06
 149    7.3641886637919e-05
 150    0.00015880326063428
 151    2.6497117165758e-06
 152    -4.9266032938825e-06
 153    -1.2154082373543e-05
 154    -0.00013963446812137
 155    -0.00066298836378986
 156    -2.5443456850855e-05
 157    4.678259241948e-05
 158    9.2953284556743e-06
 159    -4.7762478490494e-05
 160    -0.00037348751275102
 161    3.0116279979124e-05
 162    2.6558086986057e-05
 163    3.2117239439488e-05
 164    4.0668494419412e-05
 165    0.00015172341729739
 166    -0.00054000013799137
 167    0.00019263661772568
 168    -4.7225628608388e-05
 169    -0.00011113958103067
 170    -3.6362314035795e-07
 171    -3.4476965637006e-05
 172    0.0002447750872814
 173    -1.9771026724353e-05
 174    -2.2174975108874e-06
 175    -1.8099242733168e-05
 176    -6.3949614350529e-06
 177    3.9587819558704e-06
 178    1.459661681151e-05
 179    0.00044507728542186
 180    1.3688608500941e-05
 181    1.3520964800404e-05
 182    -3.844394542709e-05
 183    -2.7285966802807e-05
 184    -0.00013270665199107
 185    -1.4073420750495e-05
 186    1.3517688535429e-05
 187    7.7936413830018e-06
 188    0.00013809584783969
 189    0.00069562557936311
 190    8.303561467795e-06
 191    -5.2967963519488e-05
 192    -4.6433921216074e-05
 193    -3.0336587512088e-06
 194    -4.9547718437143e-06
 195    -2.4952570699125e-05
 196    1.3949749155262e-05
 197    2.2953448978418e-06
 198    2.3700912681037e-05
 199    -4.348963252259e-05
 200    1.2947497120911e-05
 201    -4.6713528199271e-05
 202    2.039373965015e-06
 203    -3.132216239268e-06
 204    1.9003283759359e-06
 205    -2.1021206390358e-06
 206    5.1546769151042e-06
 207    1.0061111068303e-05
 208    -4.9688881423827e-06
 209    4.0682934587116e-06
 210    -1.9645727195069e-07
 211    -3.3397548167069e-07
 212    1.0981698226961e-05
 213    -1.0470609773841e-06
 214    1.0865584463861e-06
 215    -3.6461889689787e-06
 216    1.5133383816557e-06
 217    -1.5879484362803e-05
 218     6.93298617098e-05
 219    -5.4606409105709e-06
 220    4.8283981324558e-06
 221    -3.1991194485003e-07
 222    3.6945003920388e-07
 223    -2.6866301595615e-05
 224    0.00058183912124312
 225    -0.0013935573392664
 226    -0.012716303287204
 227     0.015799267773935
 228    0.0016715418075359
 229    0.0082696761545968
 230     -0.01148273783226
 231    0.0024975453919478
 232     0.003354677518231
 233    -0.00015205616594132
 234    0.0009565478784719
 235    -0.0021989614194843
 236    -0.016196033144831
 237    -0.0089474970753145
 238    0.00010003291643788
 239    -0.0012990758965392
 240    -0.00078494156636412
 241     0.024761033016357
 242      0.01152742276948
 243    0.0007052634135398
 244    -0.00021326818702693
 245    0.0014756614360466
 246    -0.0093525926698861
 247    -0.0037461931079641
 248    -0.00064263398518732
 249    0.00089103846529651
 250    -0.00011828864430685
 251    1.0511581512302e-05
 252    9.2811249435657e-05
 253    -0.00062072483575075
 254    -0.019205272960962
 255    -0.0069181409472416
 256    -0.0068683633718697
 257     0.012723704834365
 258    0.0052647418871878
 259    0.0054456986214782
 260    0.0021756265088688
 261    0.0028250262722693
 262    0.00067293734425177
 263    0.00045037367285873
 264    -0.0032183593879708
 265     0.013041302399413
 266    0.0054600846902136
 267    0.00088093705646645
 268    -0.00039043577473228
 269    -0.00087022406703662
 270     0.013594630787351
 271     0.007480945568188
 272    -0.000387481154745
 273    0.0013263634546286
 274    0.00038666639925833
 275    -0.025971981659664
 276    -0.012279637975407
 277    -0.0014006480809828
 278    -0.0011352885839885
 279    0.00036080850458013
 280    -3.1747087629551e-06
 281    5.6383370477204e-05
 282    -0.00065389728584123
 283    0.00017604415576375
 284     0.012955499806337
 285    -0.017087588770492
 286    -0.000319634234145
 287    -0.0080963144542739
 288     0.012310810946148
 289    0.0016698682476226
 290    0.0031885933679503
 291    0.0011748577680173
 292    0.00075673368072413
 293    -0.0029596832073483
 294     0.012397691703157
 295    0.0051449000022411
 296    8.7467106684753e-05
 297    -0.0012108400988039
 298    -0.00037121298476601
 299    -0.025898737769895
 300    -0.012152104979398
 301    0.0010026095863147
 302    0.0012280876226503
 303    -0.00089395677781829
 304     0.014199866047773
 305    0.0077812039457127
 306     -0.00107026121369
 307    0.00071725673870327
 308    0.00068526677178681
 309    4.9283932102154e-06
 310    5.1572641081697e-06
 311    0.00033417484644765
 312     0.018009994029471
 313    0.0071609862700407
 314    0.0056125005094576
 315    -0.011998242513377
 316    -0.005556373684279
 317    -0.0040625550710971
 318    0.0020998651634441
 319    0.0037723150646785
 320    0.00049277848487012
 321    0.00069338216487947
 322    -0.0019036165880083
 323    -0.0061681820640711
 324    -0.0024744326078692
 325    -0.00096672916616305
 326    0.00027646049617125
 327    -7.5636814466154e-05
 328     0.024172740773542
 329     0.011620122091368
 330    0.00076081833377442
 331    0.00025076593072695
 332    0.0014682313556596
 333    -0.018489593263806
 334    -0.0099068400109545
 335     0.001058528840749
 336    -0.00040701251486222
 337    -0.0011305541898137