[Molden Format]
made by pyscf v[2.1.1]
[Atoms] (AU)
Cr   1   24     1.56143912275337    -2.46507591990239    -1.82404491365355
Cr   2   24    -1.56139565905251     2.46513072196000     1.82399011159594
O   3   8     0.00002078698737     0.00002834589187    -0.00002645616574
N   4   7     5.12832174930954    -1.10581670549011    -0.60767356069801
H   5   1     6.65216855026694    -1.66292686427314    -1.66487895135981
H   6   1     5.63710405218294    -1.59213394419468     1.18765885421890
H   7   1     5.20084187906585     0.81566059741989    -0.65509245834172
N   8   7     1.71230729763415    -0.02251608677419    -4.99594076510539
H   9   1     0.29795878723855     1.27247165241550    -4.90823668593820
H   10   1     1.50271021425414    -0.85583806455427    -6.73026148236459
H   11   1     3.34039895052705     0.99863710888315    -5.18656310846864
N   12   7     1.41057094787259    -4.90763575303059     1.34785282752440
H   13   1     1.64193389675534    -6.79355407945465     0.97314659318890
H   14   1    -0.29048681014202    -4.81040367474334     2.24006056107205
H   15   1     2.72468082571676    -4.56691435331926     2.71738081369757
N   16   7    -2.00544350380280    -3.82433513431467    -3.04041437688297
H   17   1    -2.87205678671934    -5.05516478184926    -1.83221042023780
H   18   1    -2.03637832046193    -4.76397121413665    -4.73247136936628
H   19   1    -3.24475802163669    -2.37551046050250    -3.28123540501917
N   20   7     3.37923471211299    -5.33493873459111    -3.94755661599306
H   21   1     4.17102617885350    -4.76109883042731    -5.61685374703210
H   22   1     2.26176595533881    -6.82326057413281    -4.47610923358166
H   23   1     4.85383336053810    -6.19899521806112    -3.03922195969837
N   24   7    -5.12827828560868     1.10587339727385     0.60762064836653
H   25   1    -5.15408816501799    -0.81544705836782     0.54662784797006
H   26   1    -5.69743166898356     1.68113626520945    -1.14337690194197
H   27   1    -6.63528195761783     1.56841410187914     1.73267665553083
N   28   7    -1.71226383393328     0.02257088883181     4.99588785277390
H   29   1    -1.62991523860311     0.86667375415253     6.73575491620870
H   30   1    -0.22416876152653    -1.19157625647512     4.98456461383551
H   31   1    -3.28782110056328    -1.08746368536834     5.11339858210385
N   32   7     2.00548696750367     3.82438993637228     3.04035957482536
H   33   1     2.05186651577887     4.68410571893416     4.77402266739321
H   34   1     2.83712330958063     5.12208376337235     1.87805706574587
H   35   1     3.26582090902109     2.38241174030942     3.19051154350492
N   36   7    -1.41052748417173     4.90769055508820    -1.34790762958202
H   37   1    -1.75003190025884     6.78104976168840    -0.99229329828299
H   38   1    -2.65834387984003     4.49309409198925    -2.75785496783350
H   39   1     0.32278033988471     4.89894112313146    -2.18344058692784
N   40   7    -3.37919124841212     5.33499353664873     3.94750181393545
H   41   1    -2.26357064378777     6.83195331430581     4.45515784003860
H   42   1    -4.15358022727151     4.76963661305810     5.62761006813313
H   43   1    -4.86681766873998     6.18449345978121     3.04686590187224
[GTO]
1 0
 s    6 1.00
          51528.086349  0.0017695545768669
          7737.2103487   0.013556436258096
           1760.374847   0.067162645785071
          496.87706544    0.23295905918518
          161.46520598    0.47040576982722
          55.466352268    0.35733072606876
 s    3 1.00
          107.54732999   -0.10605255446629
          12.408671897    0.62543981484169
          5.0423628826    0.44878820793655
 s    3 1.00
          8.5461640165   -0.21819012081133
          1.3900441221    0.70422525667731
         0.56066602876    0.42488555412558
 s    1 1.00
        0.071483705972                   1
 s    1 1.00
        0.028250687604                   1
 p    5 1.00
          640.48536096  0.0093555063746755
          150.69711194   0.068993338492216
          47.503755296     0.2634118959318
          16.934120165    0.51034501651775
           6.240968059    0.33195512953954
 p    3 1.00
          3.0885463206    0.32917682676976
          1.1791047769    0.55491385190365
         0.43369774432    0.23818412855984
 p    1 1.00
              0.120675                   1
 d    4 1.00
          27.559479426   0.036950140313562
          7.4687020327    0.18821519783039
          2.4345903574    0.44641244239929
         0.78244754808     0.5681617303244
 d    1 1.00
         0.21995774311                   1
 f    1 1.00
                 1.147                   1

2 0
 s    6 1.00
          51528.086349  0.0017695545768669
          7737.2103487   0.013556436258096
           1760.374847   0.067162645785071
          496.87706544    0.23295905918518
          161.46520598    0.47040576982722
          55.466352268    0.35733072606876
 s    3 1.00
          107.54732999   -0.10605255446629
          12.408671897    0.62543981484169
          5.0423628826    0.44878820793655
 s    3 1.00
          8.5461640165   -0.21819012081133
          1.3900441221    0.70422525667731
         0.56066602876    0.42488555412558
 s    1 1.00
        0.071483705972                   1
 s    1 1.00
        0.028250687604                   1
 p    5 1.00
          640.48536096  0.0093555063746755
          150.69711194   0.068993338492216
          47.503755296     0.2634118959318
          16.934120165    0.51034501651775
           6.240968059    0.33195512953954
 p    3 1.00
          3.0885463206    0.32917682676976
          1.1791047769    0.55491385190365
         0.43369774432    0.23818412855984
 p    1 1.00
              0.120675                   1
 d    4 1.00
          27.559479426   0.036950140313562
          7.4687020327    0.18821519783039
          2.4345903574    0.44641244239929
         0.78244754808     0.5681617303244
 d    1 1.00
         0.21995774311                   1
 f    1 1.00
                 1.147                   1

3 0
 s    5 1.00
          2266.1767785  -0.0053893503921743
          340.87010191   -0.04023472138896
          77.363135167   -0.18008184205526
           21.47964494   -0.46828857657651
          6.6589433124   -0.44692617160187
 s    1 1.00
         0.80975975668                   1
 s    1 1.00
         0.25530772234                   1
 p    3 1.00
          17.721504317   0.062630248763161
           3.863550544    0.33331138482352
          1.0480920883    0.74148638308122
 p    1 1.00
         0.27641544411                   1
 d    1 1.00
                   1.2                   1

4 0
 s    5 1.00
          1712.8415853  -0.0054477995804909
          257.64812677  -0.040627174632423
          58.458245853   -0.18111962250584
          16.198367905   -0.46843975563173
          5.0052600809   -0.44616846289231
 s    1 1.00
         0.58731856571                   1
 s    1 1.00
         0.18764592253                   1
 p    3 1.00
          13.571470233  -0.058848116969522
          2.9257372874   -0.32024624762471
         0.79927750754   -0.75328226520436
 p    1 1.00
         0.21954348034                   1
 d    1 1.00
                     1                   1

5 0
 s    3 1.00
             13.010701   0.033485484812989
             1.9622572    0.23472187088125
            0.44453796    0.81377028525955
 s    1 1.00
            0.12194962                   1
 p    1 1.00
                   0.8                   1

6 0
 s    3 1.00
             13.010701   0.033485484812989
             1.9622572    0.23472187088125
            0.44453796    0.81377028525955
 s    1 1.00
            0.12194962                   1
 p    1 1.00
                   0.8                   1

7 0
 s    3 1.00
             13.010701   0.033485484812989
             1.9622572    0.23472187088125
            0.44453796    0.81377028525955
 s    1 1.00
            0.12194962                   1
 p    1 1.00
                   0.8                   1

8 0
 s    5 1.00
          1712.8415853  -0.0054477995804909
          257.64812677  -0.040627174632423
          58.458245853   -0.18111962250584
          16.198367905   -0.46843975563173
          5.0052600809   -0.44616846289231
 s    1 1.00
         0.58731856571                   1
 s    1 1.00
         0.18764592253                   1
 p    3 1.00
          13.571470233  -0.058848116969522
          2.9257372874   -0.32024624762471
         0.79927750754   -0.75328226520436
 p    1 1.00
         0.21954348034                   1
 d    1 1.00
                     1                   1

9 0
 s    3 1.00
             13.010701   0.033485484812989
             1.9622572    0.23472187088125
            0.44453796    0.81377028525955
 s    1 1.00
            0.12194962                   1
 p    1 1.00
                   0.8                   1

10 0
 s    3 1.00
             13.010701   0.033485484812989
             1.9622572    0.23472187088125
            0.44453796    0.81377028525955
 s    1 1.00
            0.12194962                   1
 p    1 1.00
                   0.8                   1

11 0
 s    3 1.00
             13.010701   0.033485484812989
             1.9622572    0.23472187088125
            0.44453796    0.81377028525955
 s    1 1.00
            0.12194962                   1
 p    1 1.00
                   0.8                   1

12 0
 s    5 1.00
          1712.8415853  -0.0054477995804909
          257.64812677  -0.040627174632423
          58.458245853   -0.18111962250584
          16.198367905   -0.46843975563173
          5.0052600809   -0.44616846289231
 s    1 1.00
         0.58731856571                   1
 s    1 1.00
         0.18764592253                   1
 p    3 1.00
          13.571470233  -0.058848116969522
          2.9257372874   -0.32024624762471
         0.79927750754   -0.75328226520436
 p    1 1.00
         0.21954348034                   1
 d    1 1.00
                     1                   1

13 0
 s    3 1.00
             13.010701   0.033485484812989
             1.9622572    0.23472187088125
            0.44453796    0.81377028525955
 s    1 1.00
            0.12194962                   1
 p    1 1.00
                   0.8                   1

14 0
 s    3 1.00
             13.010701   0.033485484812989
             1.9622572    0.23472187088125
            0.44453796    0.81377028525955
 s    1 1.00
            0.12194962                   1
 p    1 1.00
                   0.8                   1

15 0
 s    3 1.00
             13.010701   0.033485484812989
             1.9622572    0.23472187088125
            0.44453796    0.81377028525955
 s    1 1.00
            0.12194962                   1
 p    1 1.00
                   0.8                   1

16 0
 s    5 1.00
          1712.8415853  -0.0054477995804909
          257.64812677  -0.040627174632423
          58.458245853   -0.18111962250584
          16.198367905   -0.46843975563173
          5.0052600809   -0.44616846289231
 s    1 1.00
         0.58731856571                   1
 s    1 1.00
         0.18764592253                   1
 p    3 1.00
          13.571470233  -0.058848116969522
          2.9257372874   -0.32024624762471
         0.79927750754   -0.75328226520436
 p    1 1.00
         0.21954348034                   1
 d    1 1.00
                     1                   1

17 0
 s    3 1.00
             13.010701   0.033485484812989
             1.9622572    0.23472187088125
            0.44453796    0.81377028525955
 s    1 1.00
            0.12194962                   1
 p    1 1.00
                   0.8                   1

18 0
 s    3 1.00
             13.010701   0.033485484812989
             1.9622572    0.23472187088125
            0.44453796    0.81377028525955
 s    1 1.00
            0.12194962                   1
 p    1 1.00
                   0.8                   1

19 0
 s    3 1.00
             13.010701   0.033485484812989
             1.9622572    0.23472187088125
            0.44453796    0.81377028525955
 s    1 1.00
            0.12194962                   1
 p    1 1.00
                   0.8                   1

20 0
 s    5 1.00
          1712.8415853  -0.0054477995804909
          257.64812677  -0.040627174632423
          58.458245853   -0.18111962250584
          16.198367905   -0.46843975563173
          5.0052600809   -0.44616846289231
 s    1 1.00
         0.58731856571                   1
 s    1 1.00
         0.18764592253                   1
 p    3 1.00
          13.571470233  -0.058848116969522
          2.9257372874   -0.32024624762471
         0.79927750754   -0.75328226520436
 p    1 1.00
         0.21954348034                   1
 d    1 1.00
                     1                   1

21 0
 s    3 1.00
             13.010701   0.033485484812989
             1.9622572    0.23472187088125
            0.44453796    0.81377028525955
 s    1 1.00
            0.12194962                   1
 p    1 1.00
                   0.8                   1

22 0
 s    3 1.00
             13.010701   0.033485484812989
             1.9622572    0.23472187088125
            0.44453796    0.81377028525955
 s    1 1.00
            0.12194962                   1
 p    1 1.00
                   0.8                   1

23 0
 s    3 1.00
             13.010701   0.033485484812989
             1.9622572    0.23472187088125
            0.44453796    0.81377028525955
 s    1 1.00
            0.12194962                   1
 p    1 1.00
                   0.8                   1

24 0
 s    5 1.00
          1712.8415853  -0.0054477995804909
          257.64812677  -0.040627174632423
          58.458245853   -0.18111962250584
          16.198367905   -0.46843975563173
          5.0052600809   -0.44616846289231
 s    1 1.00
         0.58731856571                   1
 s    1 1.00
         0.18764592253                   1
 p    3 1.00
          13.571470233  -0.058848116969522
          2.9257372874   -0.32024624762471
         0.79927750754   -0.75328226520436
 p    1 1.00
         0.21954348034                   1
 d    1 1.00
                     1                   1

25 0
 s    3 1.00
             13.010701   0.033485484812989
             1.9622572    0.23472187088125
            0.44453796    0.81377028525955
 s    1 1.00
            0.12194962                   1
 p    1 1.00
                   0.8                   1

26 0
 s    3 1.00
             13.010701   0.033485484812989
             1.9622572    0.23472187088125
            0.44453796    0.81377028525955
 s    1 1.00
            0.12194962                   1
 p    1 1.00
                   0.8                   1

27 0
 s    3 1.00
             13.010701   0.033485484812989
             1.9622572    0.23472187088125
            0.44453796    0.81377028525955
 s    1 1.00
            0.12194962                   1
 p    1 1.00
                   0.8                   1

28 0
 s    5 1.00
          1712.8415853  -0.0054477995804909
          257.64812677  -0.040627174632423
          58.458245853   -0.18111962250584
          16.198367905   -0.46843975563173
          5.0052600809   -0.44616846289231
 s    1 1.00
         0.58731856571                   1
 s    1 1.00
         0.18764592253                   1
 p    3 1.00
          13.571470233  -0.058848116969522
          2.9257372874   -0.32024624762471
         0.79927750754   -0.75328226520436
 p    1 1.00
         0.21954348034                   1
 d    1 1.00
                     1                   1

29 0
 s    3 1.00
             13.010701   0.033485484812989
             1.9622572    0.23472187088125
            0.44453796    0.81377028525955
 s    1 1.00
            0.12194962                   1
 p    1 1.00
                   0.8                   1

30 0
 s    3 1.00
             13.010701   0.033485484812989
             1.9622572    0.23472187088125
            0.44453796    0.81377028525955
 s    1 1.00
            0.12194962                   1
 p    1 1.00
                   0.8                   1

31 0
 s    3 1.00
             13.010701   0.033485484812989
             1.9622572    0.23472187088125
            0.44453796    0.81377028525955
 s    1 1.00
            0.12194962                   1
 p    1 1.00
                   0.8                   1

32 0
 s    5 1.00
          1712.8415853  -0.0054477995804909
          257.64812677  -0.040627174632423
          58.458245853   -0.18111962250584
          16.198367905   -0.46843975563173
          5.0052600809   -0.44616846289231
 s    1 1.00
         0.58731856571                   1
 s    1 1.00
         0.18764592253                   1
 p    3 1.00
          13.571470233  -0.058848116969522
          2.9257372874   -0.32024624762471
         0.79927750754   -0.75328226520436
 p    1 1.00
         0.21954348034                   1
 d    1 1.00
                     1                   1

33 0
 s    3 1.00
             13.010701   0.033485484812989
             1.9622572    0.23472187088125
            0.44453796    0.81377028525955
 s    1 1.00
            0.12194962                   1
 p    1 1.00
                   0.8                   1

34 0
 s    3 1.00
             13.010701   0.033485484812989
             1.9622572    0.23472187088125
            0.44453796    0.81377028525955
 s    1 1.00
            0.12194962                   1
 p    1 1.00
                   0.8                   1

35 0
 s    3 1.00
             13.010701   0.033485484812989
             1.9622572    0.23472187088125
            0.44453796    0.81377028525955
 s    1 1.00
            0.12194962                   1
 p    1 1.00
                   0.8                   1

36 0
 s    5 1.00
          1712.8415853  -0.0054477995804909
          257.64812677  -0.040627174632423
          58.458245853   -0.18111962250584
          16.198367905   -0.46843975563173
          5.0052600809   -0.44616846289231
 s    1 1.00
         0.58731856571                   1
 s    1 1.00
         0.18764592253                   1
 p    3 1.00
          13.571470233  -0.058848116969522
          2.9257372874   -0.32024624762471
         0.79927750754   -0.75328226520436
 p    1 1.00
         0.21954348034                   1
 d    1 1.00
                     1                   1

37 0
 s    3 1.00
             13.010701   0.033485484812989
             1.9622572    0.23472187088125
            0.44453796    0.81377028525955
 s    1 1.00
            0.12194962                   1
 p    1 1.00
                   0.8                   1

38 0
 s    3 1.00
             13.010701   0.033485484812989
             1.9622572    0.23472187088125
            0.44453796    0.81377028525955
 s    1 1.00
            0.12194962                   1
 p    1 1.00
                   0.8                   1

39 0
 s    3 1.00
             13.010701   0.033485484812989
             1.9622572    0.23472187088125
            0.44453796    0.81377028525955
 s    1 1.00
            0.12194962                   1
 p    1 1.00
                   0.8                   1

40 0
 s    5 1.00
          1712.8415853  -0.0054477995804909
          257.64812677  -0.040627174632423
          58.458245853   -0.18111962250584
          16.198367905   -0.46843975563173
          5.0052600809   -0.44616846289231
 s    1 1.00
         0.58731856571                   1
 s    1 1.00
         0.18764592253                   1
 p    3 1.00
          13.571470233  -0.058848116969522
          2.9257372874   -0.32024624762471
         0.79927750754   -0.75328226520436
 p    1 1.00
         0.21954348034                   1
 d    1 1.00
                     1                   1

41 0
 s    3 1.00
             13.010701   0.033485484812989
             1.9622572    0.23472187088125
            0.44453796    0.81377028525955
 s    1 1.00
            0.12194962                   1
 p    1 1.00
                   0.8                   1

42 0
 s    3 1.00
             13.010701   0.033485484812989
             1.9622572    0.23472187088125
            0.44453796    0.81377028525955
 s    1 1.00
            0.12194962                   1
 p    1 1.00
                   0.8                   1

43 0
 s    3 1.00
             13.010701   0.033485484812989
             1.9622572    0.23472187088125
            0.44453796    0.81377028525955
 s    1 1.00
            0.12194962                   1
 p    1 1.00
                   0.8                   1

[5d]
[7f]
[9g]

[MO]
 Sym= A
 Ene=               0
 Spin= Alpha
 Occup=    1.00000
   1    -3.8538882298819e-06
   2    7.9861426145411e-06
   3    -6.664613756726e-05
   4    -0.00027134810451949
   5    0.0016475576389125
   6    0.0047806594753303
   7     0.004395886704976
   8    -0.0018396787698896
   9    -0.016804327719628
  10    -0.015457222802778
  11    0.0064704534282797
  12     0.060225957649274
  13     0.055534188986881
  14    -0.023241743888421
  15    -0.024047163196096
  16     0.047843450020277
  17     0.014498545039837
  18    -0.075430633441924
  19     0.020356882771615
  20    -0.014878290889567
  21     0.029266910595487
  22    0.0090442379529185
  23    -0.045655826023702
  24     0.012451950450644
  25    -0.00026507821686905
  26    0.0016708116566604
  27    -0.0015188902956274
  28    -0.0043194965465978
  29    0.0019808094569117
  30    0.0012102469898321
  31    -0.004450202287248
  32    3.1415291864235e-06
  33    -6.0968129489343e-06
  34    5.6589825476244e-05
  35    -5.1258713134462e-05
  36    -0.00082649258031224
  37    0.0047797522245511
  38    0.0043978878508019
  39    -0.0018386692338646
  40    -0.016805444961947
  41    -0.015465206976106
  42    0.0064568880348977
  43     0.060319343247988
  44     0.055666289737216
  45     -0.02286890796459
  46     0.024193126147407
  47     -0.04791752170634
  48    -0.014378569449582
  49     0.075397515023524
  50    -0.020209871757661
  51     0.014836502053428
  52    -0.029188392159988
  53    -0.0091046839644732
  54     0.045650281385635
  55    -0.012723438208626
  56    -0.00026757432253963
  57    0.0016702741574718
  58    -0.0015251937755317
  59    -0.0043185094411537
  60    0.0019816219776715
  61    0.0012116819639156
  62    -0.0044480821117436
  63    7.7342134919055e-06
  64    9.1099924481138e-06
  65    7.2365071671027e-05
  66      0.39975156784405
  67      0.36698559254471
  68     -0.15435316917977
  69      0.34400679830549
  70      0.31611501279533
  71      -0.1328931197218
  72    -1.0220980625522e-05
  73    5.4952114864908e-06
  74    -7.5745081035195e-06
  75    5.5839287853553e-07
  76    -1.9650280055732e-05
  77    -0.0052196908008353
  78    -0.008236912844737
  79    -0.046186887530061
  80    -0.0089981336665039
  81    0.0044183767830632
  82    -0.0016161532844211
  83     0.012358652991981
  84    -0.0050595262082997
  85     0.018038969623085
  86    -0.00010707987125373
  87    -0.00043156357423416
  88    -5.8765995037692e-05
  89    0.0018603506320501
  90    -0.0014407637517687
  91     0.013200646931031
  92    0.0043183063186214
  93    -0.00017125531848736
  94    1.3892609505452e-05
  95    0.00040150503220503
  96    -0.0021386598924513
  97    -0.0035329641119752
  98    0.0010628209063294
  99    -0.00078132318381032
 100    0.00035435193205029
 101    -0.005546562565028
 102     0.027794680310495
 103    -0.0036380040354557
 104    -0.00072065532774205
 105    -0.00046674645906335
 106    -0.0042451974896342
 107    -0.0081582720845708
 108    -0.027372720918913
 109    -0.0018312910399914
 110    -0.00017459864124496
 111    0.0074052407462723
 112    -0.0024859700978143
 113     0.013017609430311
 114    -0.0085608911465176
 115    0.0015569891986405
 116    -0.00036765779915719
 117    0.00096972770583767
 118    -1.2300761575261e-05
 119    3.4053107693882e-05
 120    -0.0063464665914747
 121    0.0040176176557918
 122    -0.00056685526792065
 123    0.00043027877158038
 124     0.002469539612494
 125     0.010520860876756
 126    0.0099788298854962
 127    0.00083635674261049
 128    -0.00013683084972621
 129    0.00040402451544074
 130    -0.0026083901048637
 131    -0.0037174173202842
 132    0.00048257991382619
 133    -0.00021029633070488
 134    -0.00094872185064568
 135    0.0043628405014353
 136    0.0066057097172264
 137     0.040575298490408
 138    0.0057616044168803
 139    -0.0062398781123543
 140    0.0027568804342261
 141    -0.015887678376033
 142    0.0020592943799224
 143    -0.013995766251982
 144    0.00065673033549281
 145    -0.0012159117798266
 146    0.00021069965545859
 147    0.0012303811618521
 148    0.00098122122004914
 149    -0.010906389336837
 150    -0.0029749432176366
 151    -4.0903042547364e-05
 152    -0.00026102743667761
 153    -0.00023919386626404
 154    0.0042929202853035
 155    -0.027740615047967
 156    -8.1019299617082e-05
 157    -0.0026699172462478
 158    0.0023098292027171
 159    0.0013245160439536
 160    0.0037319896813409
 161    -0.00091856851215286
 162    0.00081996946840483
 163    -0.00044318976827398
 164    0.0050581621534257
 165    0.0096454202419931
 166     0.033386809528859
 167    -0.0040945138301068
 168    -0.0059193972376562
 169    -0.0052552823536964
 170     0.019032646749194
 171    1.1327438119141e-05
 172    0.00067317073918248
 173    -0.00092365365966481
 174    -0.00037835909172509
 175    -0.0017375476798647
 176    0.00084791412797622
 177    -0.00046076552303113
 178    0.0038811023384512
 179     0.002821251017942
 180    7.0683343923152e-05
 181    0.00094826561318755
 182    0.00034005354743579
 183    -0.013088194544875
 184    -0.011706928745865
 185    -0.0003162077658761
 186    0.00037807530764375
 187    -0.000795560601504
 188    0.0074818299381731
 189    -0.0046808758231528
 190    -0.00076310113051837
 191    -0.0018977764390141
 192    -0.001330703996662
 193    4.3229001575702e-06
 194    -3.9720542304679e-06
 195    0.00020175216380508
 196     0.001853884745837
 197    0.0016838967111055
 198    -0.00069667986186616
 199    0.0002189389461816
 200    0.00010962808534117
 201    -0.00014898879200566
 202    0.0001407045466872
 203    -0.00015815849105134
 204    -0.00011685718701678
 205    0.00015802904510018
 206    -0.00011289468114578
 207    -0.0012139509891071
 208    -0.0030657765739587
 209    0.00019628019806419
 210    -0.00040692720031138
 211    -0.00051564351336592
 212    0.0013890850168887
 213    0.0031893938501054
 214    -0.00019956273390376
 215    0.00057318415514159
 216    0.00048674575805784
 217    -0.00020273035701165
 218    -0.00074780114932349
 219    -9.6506551647011e-05
 220    -0.00026853138967163
 221    6.9864316614342e-05
 222    0.0052694937798206
 223    0.0080691057337883
 224     0.047831290233755
 225    -0.0091452942274607
 226    0.0047356639568645
 227    -0.0013430907731709
 228     0.013248391139347
 229    -0.0066550249863457
 230     0.016781391197406
 231    0.00010468412589569
 232    0.00041205349469243
 233    0.00018661453710734
 234    -0.0018756812231574
 235    0.0013741516995298
 236    0.0051302336264693
 237    -0.029724377137115
 238    -0.0040143524115026
 239    -0.00071164025350172
 240    -0.00053332966048657
 241    0.0012289064651984
 242    0.0029707835134599
 243    0.0011475099628866
 244    -0.00079972217201235
 245    0.00019537335401228
 246    -0.012735362109237
 247    -0.0035073874266782
 248    -8.1377986006432e-05
 249    -7.199450445043e-05
 250    0.00045505338927701
 251    0.0042128233820956
 252     0.008298384219242
 253     0.026163020728468
 254    -0.0014718813926121
 255    -0.00040016715457323
 256    0.0073126394105841
 257    -0.0042996442649976
 258     0.013833103973627
 259    -0.0080353337510424
 260    -0.0015571718068339
 261    0.00041245105457299
 262    -0.0010015456961779
 263    3.3652836977796e-05
 264    7.8955704466855e-05
 265    -0.010813987939972
 266    -0.010568301627227
 267    0.00077835877416857
 268    -6.9637681058088e-05
 269    0.00047785389435531
 270    0.0066219527757231
 271     -0.00166547469008
 272    -0.0007096214522676
 273    0.00045993654211021
 274    0.0020225843107244
 275    0.0032621147555069
 276    0.0029252886893102
 277    0.00049265819691016
 278    -0.00019747544442799
 279    -0.00077529368494235
 280    -0.0050820059216663
 281    -0.0095633540234423
 282    -0.034239137178234
 283    -0.0039423893216387
 284    -0.0062183146541744
 285    -0.0052360343268369
 286     0.018527006199651
 287    0.0014067296933093
 288    0.00049120430625428
 289    0.00096454186602264
 290    0.00037707087424497
 291    0.0016741463136199
 292    -0.00083037976653773
 293    0.00052006045786614
 294       0.0128719096312
 295     0.011168452467146
 296    -0.00034329415148205
 297    0.00046791813477547
 298    -0.00076833004517241
 299    -0.003399703271578
 300    -0.0032110600951763
 301    0.00012296897339328
 302    0.0010212025162524
 303    0.00047881475072293
 304      -0.0073662695662
 305    0.0064189445241294
 306    -0.0009250688647867
 307    -0.0020021095273857
 308    -0.0016308161388052
 309    -0.0043158828909895
 310    -0.0067866235887044
 311     -0.03869473151042
 312    0.0055949659271914
 313    -0.0059911375286951
 314    0.0030147175425477
 315    -0.014944974992652
 316    0.00076588960488802
 317    -0.015331938698644
 318    -0.00061880036401496
 319    0.0011692379284301
 320    -0.00013534444643203
 321    -0.0012603325893541
 322    -0.0010658814659947
 323      0.01124024479211
 324    0.0037967286132207
 325    4.8529182046904e-05
 326    -0.00030259026530726
 327    -0.00018344660346169
 328    -0.0020509703810556
 329    -0.0047835690164791
 330    -0.00096815196518802
 331    0.00069410841007875
 332    -0.00054897841599214
 333    -0.0046902716306329
 334     0.025717144266389
 335    -0.00013821427967329
 336    -0.0024158775162669
 337    0.0021138455442483
 338    5.1915645213129e-06
 339    3.8716498045663e-05
 340    -0.00018500003801236
 341    0.0018250870941538