[Molden Format]
made by pyscf v[2.1.1]
[Atoms] (AU)
Cr   1   24     1.56143912275337    -2.46507591990239    -1.82404491365355
Cr   2   24    -1.56139565905251     2.46513072196000     1.82399011159594
O   3   8     0.00002078698737     0.00002834589187    -0.00002645616574
N   4   7     5.12832174930954    -1.10581670549011    -0.60767356069801
H   5   1     6.65216855026694    -1.66292686427314    -1.66487895135981
H   6   1     5.63710405218294    -1.59213394419468     1.18765885421890
H   7   1     5.20084187906585     0.81566059741989    -0.65509245834172
N   8   7     1.71230729763415    -0.02251608677419    -4.99594076510539
H   9   1     0.29795878723855     1.27247165241550    -4.90823668593820
H   10   1     1.50271021425414    -0.85583806455427    -6.73026148236459
H   11   1     3.34039895052705     0.99863710888315    -5.18656310846864
N   12   7     1.41057094787259    -4.90763575303059     1.34785282752440
H   13   1     1.64193389675534    -6.79355407945465     0.97314659318890
H   14   1    -0.29048681014202    -4.81040367474334     2.24006056107205
H   15   1     2.72468082571676    -4.56691435331926     2.71738081369757
N   16   7    -2.00544350380280    -3.82433513431467    -3.04041437688297
H   17   1    -2.87205678671934    -5.05516478184926    -1.83221042023780
H   18   1    -2.03637832046193    -4.76397121413665    -4.73247136936628
H   19   1    -3.24475802163669    -2.37551046050250    -3.28123540501917
N   20   7     3.37923471211299    -5.33493873459111    -3.94755661599306
H   21   1     4.17102617885350    -4.76109883042731    -5.61685374703210
H   22   1     2.26176595533881    -6.82326057413281    -4.47610923358166
H   23   1     4.85383336053810    -6.19899521806112    -3.03922195969837
N   24   7    -5.12827828560868     1.10587339727385     0.60762064836653
H   25   1    -5.15408816501799    -0.81544705836782     0.54662784797006
H   26   1    -5.69743166898356     1.68113626520945    -1.14337690194197
H   27   1    -6.63528195761783     1.56841410187914     1.73267665553083
N   28   7    -1.71226383393328     0.02257088883181     4.99588785277390
H   29   1    -1.62991523860311     0.86667375415253     6.73575491620870
H   30   1    -0.22416876152653    -1.19157625647512     4.98456461383551
H   31   1    -3.28782110056328    -1.08746368536834     5.11339858210385
N   32   7     2.00548696750367     3.82438993637228     3.04035957482536
H   33   1     2.05186651577887     4.68410571893416     4.77402266739321
H   34   1     2.83712330958063     5.12208376337235     1.87805706574587
H   35   1     3.26582090902109     2.38241174030942     3.19051154350492
N   36   7    -1.41052748417173     4.90769055508820    -1.34790762958202
H   37   1    -1.75003190025884     6.78104976168840    -0.99229329828299
H   38   1    -2.65834387984003     4.49309409198925    -2.75785496783350
H   39   1     0.32278033988471     4.89894112313146    -2.18344058692784
N   40   7    -3.37919124841212     5.33499353664873     3.94750181393545
H   41   1    -2.26357064378777     6.83195331430581     4.45515784003860
H   42   1    -4.15358022727151     4.76963661305810     5.62761006813313
H   43   1    -4.86681766873998     6.18449345978121     3.04686590187224
[GTO]
1 0
 s    6 1.00
          51528.086349  0.0017695545768669
          7737.2103487   0.013556436258096
           1760.374847   0.067162645785071
          496.87706544    0.23295905918518
          161.46520598    0.47040576982722
          55.466352268    0.35733072606876
 s    3 1.00
          107.54732999   -0.10605255446629
          12.408671897    0.62543981484169
          5.0423628826    0.44878820793655
 s    3 1.00
          8.5461640165   -0.21819012081133
          1.3900441221    0.70422525667731
         0.56066602876    0.42488555412558
 s    1 1.00
        0.071483705972                   1
 s    1 1.00
        0.028250687604                   1
 p    5 1.00
          640.48536096  0.0093555063746755
          150.69711194   0.068993338492216
          47.503755296     0.2634118959318
          16.934120165    0.51034501651775
           6.240968059    0.33195512953954
 p    3 1.00
          3.0885463206    0.32917682676976
          1.1791047769    0.55491385190365
         0.43369774432    0.23818412855984
 p    1 1.00
              0.120675                   1
 d    4 1.00
          27.559479426   0.036950140313562
          7.4687020327    0.18821519783039
          2.4345903574    0.44641244239929
         0.78244754808     0.5681617303244
 d    1 1.00
         0.21995774311                   1
 f    1 1.00
                 1.147                   1

2 0
 s    6 1.00
          51528.086349  0.0017695545768669
          7737.2103487   0.013556436258096
           1760.374847   0.067162645785071
          496.87706544    0.23295905918518
          161.46520598    0.47040576982722
          55.466352268    0.35733072606876
 s    3 1.00
          107.54732999   -0.10605255446629
          12.408671897    0.62543981484169
          5.0423628826    0.44878820793655
 s    3 1.00
          8.5461640165   -0.21819012081133
          1.3900441221    0.70422525667731
         0.56066602876    0.42488555412558
 s    1 1.00
        0.071483705972                   1
 s    1 1.00
        0.028250687604                   1
 p    5 1.00
          640.48536096  0.0093555063746755
          150.69711194   0.068993338492216
          47.503755296     0.2634118959318
          16.934120165    0.51034501651775
           6.240968059    0.33195512953954
 p    3 1.00
          3.0885463206    0.32917682676976
          1.1791047769    0.55491385190365
         0.43369774432    0.23818412855984
 p    1 1.00
              0.120675                   1
 d    4 1.00
          27.559479426   0.036950140313562
          7.4687020327    0.18821519783039
          2.4345903574    0.44641244239929
         0.78244754808     0.5681617303244
 d    1 1.00
         0.21995774311                   1
 f    1 1.00
                 1.147                   1

3 0
 s    5 1.00
          2266.1767785  -0.0053893503921743
          340.87010191   -0.04023472138896
          77.363135167   -0.18008184205526
           21.47964494   -0.46828857657651
          6.6589433124   -0.44692617160187
 s    1 1.00
         0.80975975668                   1
 s    1 1.00
         0.25530772234                   1
 p    3 1.00
          17.721504317   0.062630248763161
           3.863550544    0.33331138482352
          1.0480920883    0.74148638308122
 p    1 1.00
         0.27641544411                   1
 d    1 1.00
                   1.2                   1

4 0
 s    5 1.00
          1712.8415853  -0.0054477995804909
          257.64812677  -0.040627174632423
          58.458245853   -0.18111962250584
          16.198367905   -0.46843975563173
          5.0052600809   -0.44616846289231
 s    1 1.00
         0.58731856571                   1
 s    1 1.00
         0.18764592253                   1
 p    3 1.00
          13.571470233  -0.058848116969522
          2.9257372874   -0.32024624762471
         0.79927750754   -0.75328226520436
 p    1 1.00
         0.21954348034                   1
 d    1 1.00
                     1                   1

5 0
 s    3 1.00
             13.010701   0.033485484812989
             1.9622572    0.23472187088125
            0.44453796    0.81377028525955
 s    1 1.00
            0.12194962                   1
 p    1 1.00
                   0.8                   1

6 0
 s    3 1.00
             13.010701   0.033485484812989
             1.9622572    0.23472187088125
            0.44453796    0.81377028525955
 s    1 1.00
            0.12194962                   1
 p    1 1.00
                   0.8                   1

7 0
 s    3 1.00
             13.010701   0.033485484812989
             1.9622572    0.23472187088125
            0.44453796    0.81377028525955
 s    1 1.00
            0.12194962                   1
 p    1 1.00
                   0.8                   1

8 0
 s    5 1.00
          1712.8415853  -0.0054477995804909
          257.64812677  -0.040627174632423
          58.458245853   -0.18111962250584
          16.198367905   -0.46843975563173
          5.0052600809   -0.44616846289231
 s    1 1.00
         0.58731856571                   1
 s    1 1.00
         0.18764592253                   1
 p    3 1.00
          13.571470233  -0.058848116969522
          2.9257372874   -0.32024624762471
         0.79927750754   -0.75328226520436
 p    1 1.00
         0.21954348034                   1
 d    1 1.00
                     1                   1

9 0
 s    3 1.00
             13.010701   0.033485484812989
             1.9622572    0.23472187088125
            0.44453796    0.81377028525955
 s    1 1.00
            0.12194962                   1
 p    1 1.00
                   0.8                   1

10 0
 s    3 1.00
             13.010701   0.033485484812989
             1.9622572    0.23472187088125
            0.44453796    0.81377028525955
 s    1 1.00
            0.12194962                   1
 p    1 1.00
                   0.8                   1

11 0
 s    3 1.00
             13.010701   0.033485484812989
             1.9622572    0.23472187088125
            0.44453796    0.81377028525955
 s    1 1.00
            0.12194962                   1
 p    1 1.00
                   0.8                   1

12 0
 s    5 1.00
          1712.8415853  -0.0054477995804909
          257.64812677  -0.040627174632423
          58.458245853   -0.18111962250584
          16.198367905   -0.46843975563173
          5.0052600809   -0.44616846289231
 s    1 1.00
         0.58731856571                   1
 s    1 1.00
         0.18764592253                   1
 p    3 1.00
          13.571470233  -0.058848116969522
          2.9257372874   -0.32024624762471
         0.79927750754   -0.75328226520436
 p    1 1.00
         0.21954348034                   1
 d    1 1.00
                     1                   1

13 0
 s    3 1.00
             13.010701   0.033485484812989
             1.9622572    0.23472187088125
            0.44453796    0.81377028525955
 s    1 1.00
            0.12194962                   1
 p    1 1.00
                   0.8                   1

14 0
 s    3 1.00
             13.010701   0.033485484812989
             1.9622572    0.23472187088125
            0.44453796    0.81377028525955
 s    1 1.00
            0.12194962                   1
 p    1 1.00
                   0.8                   1

15 0
 s    3 1.00
             13.010701   0.033485484812989
             1.9622572    0.23472187088125
            0.44453796    0.81377028525955
 s    1 1.00
            0.12194962                   1
 p    1 1.00
                   0.8                   1

16 0
 s    5 1.00
          1712.8415853  -0.0054477995804909
          257.64812677  -0.040627174632423
          58.458245853   -0.18111962250584
          16.198367905   -0.46843975563173
          5.0052600809   -0.44616846289231
 s    1 1.00
         0.58731856571                   1
 s    1 1.00
         0.18764592253                   1
 p    3 1.00
          13.571470233  -0.058848116969522
          2.9257372874   -0.32024624762471
         0.79927750754   -0.75328226520436
 p    1 1.00
         0.21954348034                   1
 d    1 1.00
                     1                   1

17 0
 s    3 1.00
             13.010701   0.033485484812989
             1.9622572    0.23472187088125
            0.44453796    0.81377028525955
 s    1 1.00
            0.12194962                   1
 p    1 1.00
                   0.8                   1

18 0
 s    3 1.00
             13.010701   0.033485484812989
             1.9622572    0.23472187088125
            0.44453796    0.81377028525955
 s    1 1.00
            0.12194962                   1
 p    1 1.00
                   0.8                   1

19 0
 s    3 1.00
             13.010701   0.033485484812989
             1.9622572    0.23472187088125
            0.44453796    0.81377028525955
 s    1 1.00
            0.12194962                   1
 p    1 1.00
                   0.8                   1

20 0
 s    5 1.00
          1712.8415853  -0.0054477995804909
          257.64812677  -0.040627174632423
          58.458245853   -0.18111962250584
          16.198367905   -0.46843975563173
          5.0052600809   -0.44616846289231
 s    1 1.00
         0.58731856571                   1
 s    1 1.00
         0.18764592253                   1
 p    3 1.00
          13.571470233  -0.058848116969522
          2.9257372874   -0.32024624762471
         0.79927750754   -0.75328226520436
 p    1 1.00
         0.21954348034                   1
 d    1 1.00
                     1                   1

21 0
 s    3 1.00
             13.010701   0.033485484812989
             1.9622572    0.23472187088125
            0.44453796    0.81377028525955
 s    1 1.00
            0.12194962                   1
 p    1 1.00
                   0.8                   1

22 0
 s    3 1.00
             13.010701   0.033485484812989
             1.9622572    0.23472187088125
            0.44453796    0.81377028525955
 s    1 1.00
            0.12194962                   1
 p    1 1.00
                   0.8                   1

23 0
 s    3 1.00
             13.010701   0.033485484812989
             1.9622572    0.23472187088125
            0.44453796    0.81377028525955
 s    1 1.00
            0.12194962                   1
 p    1 1.00
                   0.8                   1

24 0
 s    5 1.00
          1712.8415853  -0.0054477995804909
          257.64812677  -0.040627174632423
          58.458245853   -0.18111962250584
          16.198367905   -0.46843975563173
          5.0052600809   -0.44616846289231
 s    1 1.00
         0.58731856571                   1
 s    1 1.00
         0.18764592253                   1
 p    3 1.00
          13.571470233  -0.058848116969522
          2.9257372874   -0.32024624762471
         0.79927750754   -0.75328226520436
 p    1 1.00
         0.21954348034                   1
 d    1 1.00
                     1                   1

25 0
 s    3 1.00
             13.010701   0.033485484812989
             1.9622572    0.23472187088125
            0.44453796    0.81377028525955
 s    1 1.00
            0.12194962                   1
 p    1 1.00
                   0.8                   1

26 0
 s    3 1.00
             13.010701   0.033485484812989
             1.9622572    0.23472187088125
            0.44453796    0.81377028525955
 s    1 1.00
            0.12194962                   1
 p    1 1.00
                   0.8                   1

27 0
 s    3 1.00
             13.010701   0.033485484812989
             1.9622572    0.23472187088125
            0.44453796    0.81377028525955
 s    1 1.00
            0.12194962                   1
 p    1 1.00
                   0.8                   1

28 0
 s    5 1.00
          1712.8415853  -0.0054477995804909
          257.64812677  -0.040627174632423
          58.458245853   -0.18111962250584
          16.198367905   -0.46843975563173
          5.0052600809   -0.44616846289231
 s    1 1.00
         0.58731856571                   1
 s    1 1.00
         0.18764592253                   1
 p    3 1.00
          13.571470233  -0.058848116969522
          2.9257372874   -0.32024624762471
         0.79927750754   -0.75328226520436
 p    1 1.00
         0.21954348034                   1
 d    1 1.00
                     1                   1

29 0
 s    3 1.00
             13.010701   0.033485484812989
             1.9622572    0.23472187088125
            0.44453796    0.81377028525955
 s    1 1.00
            0.12194962                   1
 p    1 1.00
                   0.8                   1

30 0
 s    3 1.00
             13.010701   0.033485484812989
             1.9622572    0.23472187088125
            0.44453796    0.81377028525955
 s    1 1.00
            0.12194962                   1
 p    1 1.00
                   0.8                   1

31 0
 s    3 1.00
             13.010701   0.033485484812989
             1.9622572    0.23472187088125
            0.44453796    0.81377028525955
 s    1 1.00
            0.12194962                   1
 p    1 1.00
                   0.8                   1

32 0
 s    5 1.00
          1712.8415853  -0.0054477995804909
          257.64812677  -0.040627174632423
          58.458245853   -0.18111962250584
          16.198367905   -0.46843975563173
          5.0052600809   -0.44616846289231
 s    1 1.00
         0.58731856571                   1
 s    1 1.00
         0.18764592253                   1
 p    3 1.00
          13.571470233  -0.058848116969522
          2.9257372874   -0.32024624762471
         0.79927750754   -0.75328226520436
 p    1 1.00
         0.21954348034                   1
 d    1 1.00
                     1                   1

33 0
 s    3 1.00
             13.010701   0.033485484812989
             1.9622572    0.23472187088125
            0.44453796    0.81377028525955
 s    1 1.00
            0.12194962                   1
 p    1 1.00
                   0.8                   1

34 0
 s    3 1.00
             13.010701   0.033485484812989
             1.9622572    0.23472187088125
            0.44453796    0.81377028525955
 s    1 1.00
            0.12194962                   1
 p    1 1.00
                   0.8                   1

35 0
 s    3 1.00
             13.010701   0.033485484812989
             1.9622572    0.23472187088125
            0.44453796    0.81377028525955
 s    1 1.00
            0.12194962                   1
 p    1 1.00
                   0.8                   1

36 0
 s    5 1.00
          1712.8415853  -0.0054477995804909
          257.64812677  -0.040627174632423
          58.458245853   -0.18111962250584
          16.198367905   -0.46843975563173
          5.0052600809   -0.44616846289231
 s    1 1.00
         0.58731856571                   1
 s    1 1.00
         0.18764592253                   1
 p    3 1.00
          13.571470233  -0.058848116969522
          2.9257372874   -0.32024624762471
         0.79927750754   -0.75328226520436
 p    1 1.00
         0.21954348034                   1
 d    1 1.00
                     1                   1

37 0
 s    3 1.00
             13.010701   0.033485484812989
             1.9622572    0.23472187088125
            0.44453796    0.81377028525955
 s    1 1.00
            0.12194962                   1
 p    1 1.00
                   0.8                   1

38 0
 s    3 1.00
             13.010701   0.033485484812989
             1.9622572    0.23472187088125
            0.44453796    0.81377028525955
 s    1 1.00
            0.12194962                   1
 p    1 1.00
                   0.8                   1

39 0
 s    3 1.00
             13.010701   0.033485484812989
             1.9622572    0.23472187088125
            0.44453796    0.81377028525955
 s    1 1.00
            0.12194962                   1
 p    1 1.00
                   0.8                   1

40 0
 s    5 1.00
          1712.8415853  -0.0054477995804909
          257.64812677  -0.040627174632423
          58.458245853   -0.18111962250584
          16.198367905   -0.46843975563173
          5.0052600809   -0.44616846289231
 s    1 1.00
         0.58731856571                   1
 s    1 1.00
         0.18764592253                   1
 p    3 1.00
          13.571470233  -0.058848116969522
          2.9257372874   -0.32024624762471
         0.79927750754   -0.75328226520436
 p    1 1.00
         0.21954348034                   1
 d    1 1.00
                     1                   1

41 0
 s    3 1.00
             13.010701   0.033485484812989
             1.9622572    0.23472187088125
            0.44453796    0.81377028525955
 s    1 1.00
            0.12194962                   1
 p    1 1.00
                   0.8                   1

42 0
 s    3 1.00
             13.010701   0.033485484812989
             1.9622572    0.23472187088125
            0.44453796    0.81377028525955
 s    1 1.00
            0.12194962                   1
 p    1 1.00
                   0.8                   1

43 0
 s    3 1.00
             13.010701   0.033485484812989
             1.9622572    0.23472187088125
            0.44453796    0.81377028525955
 s    1 1.00
            0.12194962                   1
 p    1 1.00
                   0.8                   1

[5d]
[7f]
[9g]

[MO]
 Sym= A
 Ene=               0
 Spin= Alpha
 Occup=    1.00000
   1    8.8567817277691e-06
   2    2.9852845156676e-06
   3    0.00050533257087718
   4    0.0012045473347145
   5    0.00055335906204899
   6    3.1018960049291e-05
   7    -4.8010108582677e-05
   8    -3.362568894336e-05
   9    -0.00035542853664983
  10    0.0005258925457234
  11    0.00036348952001191
  12    -0.000820391930932
  13    0.0013031719698115
  14    0.00096838918402026
  15    9.8034831308852e-05
  16    -0.00074812552325082
  17    0.00064185808051261
  18    -0.00062862727891269
  19      0.98168881766483
  20    -0.0002946515465868
  21    -0.00030735615735887
  22    0.00072192028439388
  23    -4.5129004235686e-05
  24      0.18453776700128
  25    -0.00016568634042127
  26    -5.5317165601766e-05
  27    7.4450167596765e-05
  28    -0.00012797340090792
  29    -0.00025577398660121
  30    0.00018727805585859
  31    1.8037709211965e-05
  32    -1.8088443365415e-05
  33    -1.469868894764e-05
  34    -0.00079642381043239
  35    -0.0013162159697133
  36    -0.00040887059669402
  37    3.099458675993e-05
  38    -6.3604525028132e-05
  39    -5.4059920948295e-05
  40    -0.00034741514051703
  41    0.00061236956488236
  42    0.00048294058069732
  43    -0.00098285121983208
  44    0.0012455836104607
  45    0.00076365716488177
  46    -6.7147713218724e-06
  47    0.00015997467213373
  48    -0.00029068057441476
  49    0.00013031284153927
  50    0.00022638885808483
  51    0.00038464268265118
  52    0.00022599932196031
  53    4.0420346426437e-05
  54    -0.00011877003702097
  55    0.00033894323002943
  56    3.9883960315269e-06
  57    -2.6481469185217e-06
  58    7.6371110262373e-06
  59    -3.4054042437528e-06
  60    3.2464544723852e-06
  61    -5.9545753831498e-06
  62    -9.1361592133672e-06
  63    -0.00068082544642212
  64     0.001435028686636
  65    -0.010136012234548
  66    -0.0021666079497401
  67    0.0023082659334197
  68     0.001158348694843
  69    -0.0067548596180477
  70     0.020156992038818
  71      0.01963062111999
  72    0.00013648319985766
  73    0.0060055533756282
  74    -0.010747948838556
  75    0.0046362265333751
  76    0.0066711140230578
  77    0.00025689151235659
  78    -0.0024038330556579
  79    0.0045967498304941
  80    -0.0017635985790144
  81    0.0003218269617638
  82    -0.00077152369234627
  83    -0.014977840276893
  84    -0.0018906696153605
  85    -0.0056060838076194
  86    -0.0017312487653583
  87    0.0011495311567015
  88    0.00096051275214953
  89    0.00084414331774586
  90    0.0023611472526506
  91    -0.00017048969123594
  92    0.0012173387741681
  93    0.0010685373997516
  94    0.0001896814474255
  95    0.00037634733335548
  96    -0.00035507079686004
  97    0.0010124909519353
  98    0.0011266280899172
  99    0.00032320223637122
 100    0.00028673836681548
 101    -0.0011749312179798
 102    0.0026074330377624
 103     0.002796138688102
 104    0.0017635998687021
 105    0.0010566251139127
 106    1.7562019121384e-05
 107    -0.00024548502434486
 108    0.0003059501410595
 109    0.00072952208302715
 110    -4.1178369490368e-05
 111    0.00023485442929123
 112    0.0032386174696058
 113    -0.00096694800314186
 114    0.0013255631499048
 115    -8.5867210149653e-06
 116    -0.0010841759721109
 117    -0.00029291593876169
 118    -8.2533328674366e-05
 119    0.00039976963721141
 120    0.00067650060955685
 121    -0.00028393960398861
 122    -5.9269174104475e-05
 123    -0.00094482863584299
 124    0.0011538772433181
 125    1.1607995854626e-05
 126    -0.00013147844178593
 127    0.00012894686216519
 128    5.2065707104613e-05
 129    -4.5233687691248e-06
 130    -0.000584505900711
 131    0.00069002032961076
 132    0.00020641708368902
 133    0.00088827938324143
 134    -0.0012510755256249
 135    2.3127973265333e-05
 136    -0.00020623382587293
 137    0.00049170625265009
 138    -0.00086829972550834
 139    6.7757818346576e-05
 140    -0.00016563324444029
 141    -0.0027555095218507
 142    0.00096957436425971
 143    -0.0012924604311409
 144    -4.9679249729353e-05
 145    -0.0013804722395704
 146    -0.00021997184258548
 147    1.3413986003778e-05
 148    9.9341526413747e-05
 149    0.00011612644551944
 150    8.7180387490574e-06
 151    0.00026475316363089
 152    6.649642103256e-05
 153    -5.2093862703157e-05
 154    -0.00034122453580576
 155    0.00095448734980932
 156    -0.00022301414775301
 157    -0.00040221813163853
 158    0.0010588147304417
 159    -0.00010401934801295
 160    -0.00053220098698433
 161    -0.00015753695385888
 162    -4.8179043016801e-05
 163    -0.0004053534437145
 164    0.00025251009834755
 165    -0.0024730171990189
 166    0.0044280897328311
 167    0.0018209879193784
 168    -0.00030738597060623
 169    0.0007732047772369
 170     0.014971411652735
 171    0.0019445821538025
 172    0.0058979962870796
 173    -0.0013420117187539
 174    0.0010540576864868
 175    0.00093821515516798
 176    0.0011416285827156
 177    0.0026426399186237
 178    -0.00090112043339217
 179    0.0020984083210773
 180    -0.0026545673731797
 181    -0.0011760653870308
 182    -0.00061526910955048
 183    -0.00036192387125544
 184     0.001754885290679
 185    -0.0016525623268454
 186    -0.00080042328273708
 187    -0.00080003212623447
 188    3.117467083192e-05
 189    0.00089750914541907
 190    -9.915377085904e-05
 191    0.00012789772301304
 192    1.2631056993654e-05
 193    -0.00027514405036806
 194    0.0025698020170674
 195    -0.0047800618282577
 196    0.00027727069727164
 197    -0.0012784294010405
 198    -0.0013844897781242
 199    0.0052772659510957
 200    -0.011981801692484
 201    -0.010603736618187
 202    0.0010116452556078
 203    0.0016024659895582
 204    -0.0018530697691697
 205    0.00046787535106736
 206    0.0022995494190183
 207    0.0003766103230827
 208    -0.001559242404398
 209    -0.0008364187157911
 210     0.001031293680394
 211    0.0009422620051499
 212    3.4600091249568e-05
 213    -0.0013467574160837
 214    -0.00024706608099766
 215    0.00069275634830095
 216    0.00043728710686616
 217    0.00099268181425944
 218    -0.0023001763557436
 219    -0.0017259157546771
 220    0.0022932013079011
 221    0.0014306065341935
 222    -3.9732239797888e-07
 223    6.1831365538161e-05
 224    -0.0001806749086801
 225    -4.7767387461583e-05
 226    -2.0904562774963e-05
 227    -2.694044922179e-05
 228    -0.0003398175903361
 229    -3.8891467474667e-05
 230    -4.1674145517648e-05
 231    2.8529902028229e-05
 232    1.7325591975335e-05
 233    4.2228599231907e-06
 234    -3.3540073764575e-05
 235    1.4253413207726e-05
 236    -1.2086394710129e-05
 237    2.2637553980595e-05
 238    2.9133438374358e-05
 239    1.5004794914769e-05
 240    2.4764513145647e-05
 241    -3.1817279388499e-05
 242    4.085852193175e-05
 243    4.3944026634261e-05
 244    2.2169380718046e-05
 245    7.6403846014129e-06
 246    -4.4142187633675e-05
 247    -0.00010517586121392
 248    2.5615614181603e-05
 249    1.4914711102482e-05
 250    3.0795137841712e-05
 251    -7.105975276591e-06
 252    6.7625611389194e-05
 253    -0.00016011360799582
 254    -7.5165611162106e-06
 255    -2.9578008962944e-05
 256    3.9850333268106e-05
 257    -0.00012022712781706
 258    -8.091262540933e-05
 259    0.00037716748920542
 260    -3.5930972122707e-05
 261    2.5340378853461e-05
 262    -5.5184954149013e-06
 263    -7.3519653155402e-07
 264    7.6381301052368e-06
 265    -9.7662661389729e-06
 266    -6.5066194736581e-05
 267    1.5593011564838e-05
 268    2.4224612577797e-05
 269    -2.3729899440768e-05
 270    3.1940005367719e-05
 271    -6.2505529108255e-05
 272    -1.1322493609162e-05
 273    1.9019683844548e-05
 274    -3.1344236256142e-05
 275    6.1473971096709e-06
 276    -7.2531317949149e-05
 277    -1.5994904875116e-06
 278    1.2775359718703e-05
 279    -4.6366965696285e-05
 280    -1.0015917849056e-05
 281    0.0001071168557758
 282    -0.00019079277086082
 283    4.6436617612762e-05
 284    5.2407386368633e-05
 285    2.5731602065819e-05
 286    0.00020252266908993
 287    0.00041005540611167
 288    0.00029530209847371
 289    -1.9065448456299e-06
 290    -3.1152954579616e-06
 291    -4.1031641170402e-05
 292    1.6419123292226e-05
 293    -1.0461488076205e-05
 294    -7.8395455608558e-06
 295    -6.4530569542482e-05
 296    -2.7767833912257e-05
 297    -3.4759431366722e-05
 298    -2.7584782784484e-06
 299    2.1888309841616e-05
 300    -8.3264533601298e-05
 301    -2.9544180243828e-05
 302    -4.4265424366638e-05
 303    -4.1545400546462e-05
 304    7.7457839513725e-05
 305    -0.00016991610434411
 306    -1.5257166745136e-06
 307    -2.6155998272213e-07
 308    -2.6968201308571e-05
 309    -1.7044503950126e-06
 310    6.1796464408094e-05
 311    -0.00014632436786337
 312    -4.8623429318492e-06
 313    2.2382423207802e-05
 314    -4.0966116581426e-05
 315    -1.4151694024123e-05
 316    0.00025709239580503
 317    -0.00020512786528237
 318    2.8444289074846e-05
 319    -8.329443848187e-07
 320    2.3094139499984e-05
 321    3.1777971204079e-05
 322    1.2318316667361e-05
 323    -3.3669607580264e-05
 324    -7.7021960871239e-05
 325    4.0216991878022e-06
 326    -7.4349525980187e-06
 327    3.2238412569073e-05
 328    -2.7258546816991e-05
 329     6.36826373726e-05
 330    -1.1160639794443e-05
 331    -1.7024411122842e-05
 332    4.1107834792395e-05
 333    9.207957565871e-06
 334    -0.00012338160769555
 335    8.3405412588267e-06
 336    -5.3908088983139e-06
 337    4.724782381909e-05