[Molden Format]
made by pyscf v[2.1.1]
[Atoms] (AU)
Fe   1   26     3.17068844873907     0.00098706064664     0.12237737881307
O   2   8     0.00000000000000     0.00000000000000    -0.89004350580623
Fe   3   26    -3.17068844873907    -0.00098706064664     0.12237737881307
Cl   4   17     3.53383895113107    -2.07485195383062     3.76228752659000
Cl   5   17     5.54152580550813    -1.85590924879884    -2.78672786652360
Cl   6   17     4.48169216485503     3.92976278472880    -0.95330240907949
Cl   7   17    -3.53383895113107     2.07485195383062     3.76228752659000
Cl   8   17    -5.54152580550813     1.85590924879884    -2.78672786652360
Cl   9   17    -4.48169216485503    -3.92976278472880    -0.95330240907949
[GTO]
1 0
 s    6 1.00
          60923.640643  0.0017552243692958
          9147.8893982   0.013449023284001
          2081.3505927   0.066678874640978
          587.55977067    0.23176348548844
           191.0904399    0.46945550248188
          65.732730112     0.3596824938678
 s    3 1.00
          127.25891928   -0.10723431835929
           14.83091301    0.62971616328466
          6.0653307408    0.44472317896179
 s    3 1.00
           10.44994371   -0.21694289195548
          1.7245228003    0.69457867408393
         0.71772177325    0.43298308896347
 s    1 1.00
        0.091449828308                   1
 s    1 1.00
        0.033706691021                   1
 p    5 1.00
          773.43750995  0.0091440529992506
          182.15149714   0.067887577136571
          57.547272758    0.26167978878504
          20.614988935    0.51088040113251
           7.634855789    0.33235475570224
 p    3 1.00
           3.871932799    0.33193859098144
          1.4924724132     0.5553666555499
         0.56061284958    0.23106034201617
 p    1 1.00
              0.134915                   1
 d    4 1.00
          38.968133419   0.033335938558743
          10.800067078    0.17766212505983
          3.6136457999      0.441281781625
          1.2129967888    0.57089200490673
 d    1 1.00
          0.3652439317                   1
 f    1 1.00
                 1.598                   1

2 0
 s    5 1.00
          2266.1767785  -0.0053893503921743
          340.87010191   -0.04023472138896
          77.363135167   -0.18008184205526
           21.47964494   -0.46828857657651
          6.6589433124   -0.44692617160187
 s    1 1.00
         0.80975975668                   1
 s    1 1.00
         0.25530772234                   1
 p    3 1.00
          17.721504317   0.062630248763161
           3.863550544    0.33331138482352
          1.0480920883    0.74148638308122
 p    1 1.00
         0.27641544411                   1
 d    1 1.00
                   1.2                   1

3 0
 s    6 1.00
          60923.640643  0.0017552243692958
          9147.8893982   0.013449023284001
          2081.3505927   0.066678874640978
          587.55977067    0.23176348548844
           191.0904399    0.46945550248188
          65.732730112     0.3596824938678
 s    3 1.00
          127.25891928   -0.10723431835929
           14.83091301    0.62971616328466
          6.0653307408    0.44472317896179
 s    3 1.00
           10.44994371   -0.21694289195548
          1.7245228003    0.69457867408393
         0.71772177325    0.43298308896347
 s    1 1.00
        0.091449828308                   1
 s    1 1.00
        0.033706691021                   1
 p    5 1.00
          773.43750995  0.0091440529992506
          182.15149714   0.067887577136571
          57.547272758    0.26167978878504
          20.614988935    0.51088040113251
           7.634855789    0.33235475570224
 p    3 1.00
           3.871932799    0.33193859098144
          1.4924724132     0.5553666555499
         0.56061284958    0.23106034201617
 p    1 1.00
              0.134915                   1
 d    4 1.00
          38.968133419   0.033335938558743
          10.800067078    0.17766212505983
          3.6136457999      0.441281781625
          1.2129967888    0.57089200490673
 d    1 1.00
          0.3652439317                   1
 f    1 1.00
                 1.598                   1

4 0
 s    5 1.00
          10449.827566  0.0054265953789407
          1571.7365221   0.040626378128836
          357.12065523    0.18359747852877
          100.25185935    0.47438948768198
          30.812727554    0.43735181104122
 s    3 1.00
          51.923789434  -0.092754154848099
          5.7045760975    0.56380825544207
          2.3508376809    0.50367044629712
 s    1 1.00
         0.44605124672                   1
 s    1 1.00
          0.1684885619                   1
 p    5 1.00
          307.66790569  -0.0088797025588865
          72.102015515  -0.064284071721237
          22.532680262   -0.24288739736006
          7.8991765444   -0.48340836369878
          2.8767268321   -0.38952563875509
 p    1 1.00
         0.77459363955                   1
 p    1 1.00
         0.21037699698                   1
 d    1 1.00
                  0.65                   1

5 0
 s    5 1.00
          10449.827566  0.0054265953789407
          1571.7365221   0.040626378128836
          357.12065523    0.18359747852877
          100.25185935    0.47438948768198
          30.812727554    0.43735181104122
 s    3 1.00
          51.923789434  -0.092754154848099
          5.7045760975    0.56380825544207
          2.3508376809    0.50367044629712
 s    1 1.00
         0.44605124672                   1
 s    1 1.00
          0.1684885619                   1
 p    5 1.00
          307.66790569  -0.0088797025588865
          72.102015515  -0.064284071721237
          22.532680262   -0.24288739736006
          7.8991765444   -0.48340836369878
          2.8767268321   -0.38952563875509
 p    1 1.00
         0.77459363955                   1
 p    1 1.00
         0.21037699698                   1
 d    1 1.00
                  0.65                   1

6 0
 s    5 1.00
          10449.827566  0.0054265953789407
          1571.7365221   0.040626378128836
          357.12065523    0.18359747852877
          100.25185935    0.47438948768198
          30.812727554    0.43735181104122
 s    3 1.00
          51.923789434  -0.092754154848099
          5.7045760975    0.56380825544207
          2.3508376809    0.50367044629712
 s    1 1.00
         0.44605124672                   1
 s    1 1.00
          0.1684885619                   1
 p    5 1.00
          307.66790569  -0.0088797025588865
          72.102015515  -0.064284071721237
          22.532680262   -0.24288739736006
          7.8991765444   -0.48340836369878
          2.8767268321   -0.38952563875509
 p    1 1.00
         0.77459363955                   1
 p    1 1.00
         0.21037699698                   1
 d    1 1.00
                  0.65                   1

7 0
 s    5 1.00
          10449.827566  0.0054265953789407
          1571.7365221   0.040626378128836
          357.12065523    0.18359747852877
          100.25185935    0.47438948768198
          30.812727554    0.43735181104122
 s    3 1.00
          51.923789434  -0.092754154848099
          5.7045760975    0.56380825544207
          2.3508376809    0.50367044629712
 s    1 1.00
         0.44605124672                   1
 s    1 1.00
          0.1684885619                   1
 p    5 1.00
          307.66790569  -0.0088797025588865
          72.102015515  -0.064284071721237
          22.532680262   -0.24288739736006
          7.8991765444   -0.48340836369878
          2.8767268321   -0.38952563875509
 p    1 1.00
         0.77459363955                   1
 p    1 1.00
         0.21037699698                   1
 d    1 1.00
                  0.65                   1

8 0
 s    5 1.00
          10449.827566  0.0054265953789407
          1571.7365221   0.040626378128836
          357.12065523    0.18359747852877
          100.25185935    0.47438948768198
          30.812727554    0.43735181104122
 s    3 1.00
          51.923789434  -0.092754154848099
          5.7045760975    0.56380825544207
          2.3508376809    0.50367044629712
 s    1 1.00
         0.44605124672                   1
 s    1 1.00
          0.1684885619                   1
 p    5 1.00
          307.66790569  -0.0088797025588865
          72.102015515  -0.064284071721237
          22.532680262   -0.24288739736006
          7.8991765444   -0.48340836369878
          2.8767268321   -0.38952563875509
 p    1 1.00
         0.77459363955                   1
 p    1 1.00
         0.21037699698                   1
 d    1 1.00
                  0.65                   1

9 0
 s    5 1.00
          10449.827566  0.0054265953789407
          1571.7365221   0.040626378128836
          357.12065523    0.18359747852877
          100.25185935    0.47438948768198
          30.812727554    0.43735181104122
 s    3 1.00
          51.923789434  -0.092754154848099
          5.7045760975    0.56380825544207
          2.3508376809    0.50367044629712
 s    1 1.00
         0.44605124672                   1
 s    1 1.00
          0.1684885619                   1
 p    5 1.00
          307.66790569  -0.0088797025588865
          72.102015515  -0.064284071721237
          22.532680262   -0.24288739736006
          7.8991765444   -0.48340836369878
          2.8767268321   -0.38952563875509
 p    1 1.00
         0.77459363955                   1
 p    1 1.00
         0.21037699698                   1
 d    1 1.00
                  0.65                   1

[5d]
[7f]
[9g]

[MO]
 Sym= A
 Ene=               0
 Spin= Alpha
 Occup=    1.00000
   1    0.0010940498292204
   2    -0.0032517404047664
   3     0.014565753745875
   4    -0.027666606434699
   5     0.012774569772332
   6    0.00036084973804402
   7    0.0023989172010421
   8    -0.0041553931294745
   9    -0.0011640909995111
  10    -0.0074938586980492
  11     0.012922455311578
  12    0.0015918589772101
  13    0.0098457216424381
  14    -0.018814727893792
  15      0.27060429946006
  16     -0.46435521616563
  17     -0.39986149683623
  18      0.44290956352329
  19      0.35355463033986
  20     0.072750982828829
  21     -0.12454026581741
  22     -0.10844616138229
  23      0.12006391994796
  24     0.094743167741138
  25    0.0011586522098821
  26    -0.00088655768114915
  27    -0.00087473850491131
  28    -0.00020781327639825
  29    -2.5286260735482e-05
  30    0.0008703919690304
  31    0.00081151790284577
  32     0.001896707361609
  33     0.004935670084029
  34    0.0030841359331904
  35    0.0084903766489725
  36     0.025955385414353
  37    -0.043183157909766
  38    0.0094214904108897
  39     0.025202577902387
  40    -0.041986503959715
  41    -8.264008295097e-05
  42    0.0010487593666682
  43    -1.9809201177414e-05
  44    -8.9563688141477e-05
  45    -0.00046721252061641
  46    0.00047467798802524
  47    -0.0014181659230553
  48    0.0063169677939629
  49    -0.0065267574503302
  50    0.00091658223351695
  51    -0.0021884083723783
  52    0.00086561967456606
  53    -0.00073416103672605
  54    0.0069860566946831
  55    -0.0027545298812665
  56    0.0023445219793938
  57    -0.0061408396382651
  58    0.0052395092503626
  59    -0.0075480410395627
  60    0.0012420944409341
  61    -0.00024875433287138
  62    -8.6787480115415e-05
  63    -0.0021104444025184
  64    0.0007814670520931
  65    0.0012433030171189
  66    -0.0018986626636842
  67    -0.00035839179290247
  68    -0.00080752791415775
  69    0.0015672498730999
  70    4.2523704880432e-05
  71    0.0003425349815557
  72    -3.7610136503933e-06
  73    -6.8159383085394e-05
  74    -0.00011598244395441
  75    -0.00024752043156208
  76    0.00022242078053988
  77    -0.0012798937949663
  78    0.0083934975433058
  79    -0.010701019158108
  80    -0.0058728073695703
  81     0.018765281105111
  82     -0.01091836154273
  83    0.0072497151512096
  84     0.031810612408264
  85    -0.018713312372994
  86     0.012745009776131
  87     0.052497115573879
  88    -0.030442632305416
  89     0.019815460554058
  90    -0.00085950291794408
  91    0.0020680901798456
  92    -0.00064345085691127
  93    0.00064428085028136
  94    -0.0012776630933563
  95    -4.7028809540439e-05
  96    0.00029557152309605
  97    0.00086748075665254
  98    -0.0043489384664836
  99    -0.0087893578546316
 100     -0.02703111563075
 101     0.009440283090856
 102    -0.014803178147286
 103     -0.04555892882988
 104     0.015743956968932
 105     -0.02367445877568
 106    -0.077712538475784
 107     0.026426907490807
 108    -0.001064436876065
 109    0.0013335510932922
 110     0.001620167954683
 111    -0.0018890958479845
 112    -0.0014173229854374
 113    0.0003221299287825
 114    -0.0021268220472838
 115     0.004150663572117
 116    -0.0024599403839977
 117    -0.015315002136958
 118    0.0066898157076443
 119     0.020143785690583
 120    -0.025698653181121
 121     0.011230249961558
 122      0.03380983406669
 123    -0.042855491301518
 124       0.0201356496084
 125     0.056935998562267
 126    -0.00082396345913244
 127    0.0012757529412008
 128    0.0013532316736569
 129    -0.0017440379347633
 130    -0.00097418473198556
 131    0.00018018463704904
 132    -0.0012217628280397
 133    0.0023899750587005
 134    0.00081977417315116
 135    0.0011415544201261
 136    -0.00084835656067216
 137    -0.00048890178251551
 138    0.0021416530421902
 139    -0.0014555587808949
 140    -0.00086901364263471
 141    0.0026754971596856
 142    -0.0031500102932733
 143    -0.0019099605769911
 144    9.633153303692e-05
 145    0.00023637277234203
 146    -6.3569671660482e-05
 147    -0.00012957256078161
 148    0.00023700951201774
 149    -9.0045941808874e-05
 150    0.00059439279045879
 151    -0.00053888648735135
 152    -0.0032586204933369
 153    -0.0011963371682087
 154    -0.00015449581767926
 155    0.00059395422920187
 156    -0.0020841135167201
 157    -0.00029927271567404
 158    0.0010925684512348
 159    -0.0039924223039318
 160    0.00044841124847223
 161    9.8081007235912e-05
 162    -6.4432681033815e-05
 163    -0.00012858647272154
 164    5.2547114600394e-05
 165    0.00010402469887091
 166    4.1348630809722e-05
 167    0.00014515642878887
 168    -0.00097688522176159
 169    0.0018553094678996
 170    0.00046903966320445
 171    0.0012163316275453
 172    0.00054571815423425
 173    0.00066973616215006
 174    0.0022012839968953
 175    0.00097798946282782
 176    0.0010823611782449
 177    0.0031904140874463
 178    0.0016769926958935
 179    0.0025150737218316
 180    0.00013167311374801
 181    -0.00010204022879677
 182    1.630700466073e-05
 183    -0.00018681835266554
 184    -0.00022495728312871
 Sym= A
 Ene=               1
 Spin= Alpha
 Occup=    1.00000
   1    -0.00098049296667497
   2    0.0029145858604723
   3    -0.013047359603316
   4     0.025171308845082
   5    -0.009637763033445
   6    0.00015912652971399
   7    0.0062261313053625
   8    0.0038492475244672
   9    -0.00050950403821299
  10    -0.019127720745087
  11    -0.011776586179172
  12    0.0014282652129696
  13     0.026835893632522
  14     0.018318339290699
  15      0.49664600385351
  16      0.23857730133806
  17      0.52072265539212
  18     0.070648114283009
  19      0.43458565161962
  20      0.13336332901295
  21     0.063182083808507
  22      0.14007271806246
  23     0.018446895366815
  24      0.11526925271969
  25    0.00041375512965576
  26    0.0015280739083878
  27    0.00068068872589214
  28    0.00076079356751776
  29    0.0017115450664441
  30    -3.6240814872217e-05
  31    0.0013822726941125
  32    -0.0028831436343882
  33    -0.0073646562335049
  34    -0.0042449609085106
  35    -0.011631649921532
  36     0.070711961280572
  37     0.049846371234415
  38    -0.013053597011646
  39     0.068188188785283
  40     0.048656347351292
  41    0.00062785839861153
  42    -0.0014467786070966
  43    0.0011099249029487
  44    0.00055798038958947
  45    -0.0016180050402315
  46    -0.00061780875753113
  47    0.0018317601679817
  48    -0.0082821938114808
  49    0.0097672599846871
  50    -0.002101668376751
  51    0.0026217075476118
  52    0.0020581770777706
  53    0.00061175826540058
  54    -0.0083710034142563
  55    -0.0065516672129574
  56    -0.0019603538071319
  57    0.0067619824564853
  58     0.013214998034665
  59    0.0082661512600793
  60    -0.001678010955172
  61    -0.00020803954564327
  62    -0.00036122211444289
  63    0.0022783002717368
  64    0.0017196950552449
  65     -0.00145749595409
  66    0.0022144637135441
  67    -0.0011138877966507
  68    0.00075650984669463
  69    0.0045573644873068
  70    -2.4470438715717e-05
  71    -0.00039359026688196
  72    -0.00014339800617771
  73    0.00011875900898659
  74    -0.00032701388389845
  75    0.00031545373158376
  76    0.00061920429423252
  77    0.00020779450034629
  78    -0.0013571472468673
  79    0.0011850203618198
  80    0.0013993767028673
  81    2.7810702342472e-05
  82    -0.021904474464199
  83    -0.014594800932001
  84    4.3319388727703e-06
  85    -0.036905564638601
  86     -0.02479126759848
  87    0.00020143200779932
  88    -0.062844663868576
  89    -0.041544741166669
  90    -0.0025031205009815
  91    8.2733459831688e-05
  92    -0.001241659153592
  93    -0.001534891719078
  94    0.00010276796562021
  95    -0.00036899508092734
  96    0.0024735407246309
  97    -0.0050477908353354
  98    0.0046278068438426
  99     0.017343644471055
 100    -0.0058069419258599
 101     0.013076249084665
 102     0.029417136769673
 103    -0.0097193030705274
 104     0.021999649295866
 105     0.046711562146764
 106    -0.016572808790996
 107     0.038203688858889
 108    -0.0022648247062546
 109    -0.00022077853790259
 110    -0.00021636915256775
 111    0.0011548274566334
 112    -0.0010814283613356
 113    0.0010938972103925
 114    -0.0071611093414555
 115    0.0091915308512657
 116    0.0040832698145019
 117    -0.013806513918085
 118    -0.010475662975909
 119    -0.010528864419324
 120    -0.023324393773898
 121    -0.017926525609678
 122    -0.017644201549096
 123    -0.038483067763545
 124    -0.029250108517535
 125    -0.030425719438605
 126     0.001069753799072
 127    3.938759833592e-05
 128    -0.0013607951407405
 129    -0.00056910976562719
 130    -0.0010227452837817
 131    -0.00032136775185736
 132    0.0021310332681849
 133    -0.0029507322027263
 134    -0.0055577829771336
 135    -0.0025819041663268
 136    0.00011120924588377
 137    0.0020221296513512
 138    -0.0045596829954346
 139    0.00013646205408771
 140     0.003429483424854
 141    -0.0069224651910871
 142    0.0017471296030406
 143    0.0084101694853893
 144    -4.6709852541813e-05
 145    -0.00058425065713719
 146    -4.5532169944227e-05
 147    0.00031432872266374
 148    -0.00013242730719548
 149    -8.5043208959702e-05
 150    0.00057241787652855
 151    -0.0012091239787643
 152    0.00046348794339859
 153    -0.00068091174339107
 154    -0.00042077573485517
 155    -0.00090286517555048
 156    -0.0012343277671202
 157    -0.00057807021821713
 158    -0.0014779976338705
 159    -0.0017494683497662
 160    -0.0023954962639837
 161    -0.0028672844411836
 162    -0.00016792078204615
 163    0.00015415413265021
 164    -3.1531301421736e-05
 165    0.00011157030784016
 166    1.0389430472423e-05
 167    0.00024194777280332
 168    -0.0016086673152258
 169    0.0022748529417756
 170    0.0043580520871816
 171    0.0028013604280519
 172    0.00071559803236438
 173    -0.0009520670690181
 174    0.0050301126729886
 175    0.0011777952842802
 176    -0.0016977198674867
 177    0.0071622243658557
 178    0.0043029928662377
 179    -0.0018332795582392
 180    9.7172066473491e-05
 181    0.00023657702847643
 182    0.00018393120455756
 183    -0.0004957194534721
 184    -0.00015605609463428
 Sym= A
 Ene=               2
 Spin= Alpha
 Occup=    1.00000
   1    0.00061721097038885
   2    -0.0018388070186256
   3    0.0082063091828524
   4    -0.010808360954393
   5    -0.0013228218271077
   6    0.0020589096603661
   7    0.0045346191839752
   8    -0.0043765738751742
   9    -0.0063755721064471
  10    -0.014336578998617
  11     0.013909759553382
  12    0.0056123174977437
  13    0.0074809297072011
  14    -0.0065900373124459
  15      0.55469266727747
  16      0.35205083267814
  17      -0.3141841085049
  18      0.11810040862579
  19     -0.47007916313778
  20      0.14529756342793
  21     0.090645980304916
  22    -0.082227397742274
  23     0.032365341800855
  24     -0.12109980358453
  25    0.00023145754796456
  26    0.0017791468628403
  27    4.2188689305733e-05
  28    0.0015365953801367
  29    -0.0013851843771093
  30    -0.00022639097283058
  31    -0.001899601284861
  32    -0.0046249903883845
  33    -0.011350311599339
  34    -0.0086612768537158
  35    -0.021913944168263
  36    -0.080702984827459
  37     0.069328193058233
  38    -0.024815632412887
  39    -0.079028051727183
  40     0.067626184078155
  41    0.00068947606786234
  42    -0.0020061176417113
  43    -0.0011374756027016
  44    0.0010749426607399
  45    0.0018742688710113
  46    -0.00092584544205932
  47    0.0027427308919211
  48    -0.012428302954828
  49     0.013475870993865
  50    -0.0046324107909306
  51    0.0040639856312091
  52    -0.0025625035692531
  53    0.0010419553207186
  54    -0.013026174438383
  55    0.0081551202252754
  56    -0.0033429412204252
  57     0.012336492903706
  58    -0.015641080509965
  59     0.013200908067428
  60    -0.0021767555153766
  61    -0.00050858824033867
  62    0.00040414273191511
  63    0.0039629687702546
  64    -0.0020313922677968
  65    -0.0021414268591114
  66    0.0030959142704918
  67     0.001578270077427
  68    0.0020637167701229
  69    -0.0051447665959973
  70    -2.616011648396e-05
  71    -0.00057388015347379
  72    6.8328109817056e-05
  73    2.4688103685544e-05
  74    0.00037504868892683
  75    0.00045665975878908
  76    -0.00070418624412849
  77    -0.0037006332773955
  78     0.024252378617468
  79    -0.030237686272991
  80    -0.030531792487684
  81    -0.0099818459708368
  82    -0.027662680717099
  83     0.030197244416802
  84    -0.016640924039545
  85    -0.047085122821912
  86     0.051808040208564
  87    -0.028321874648159
  88    -0.082600450515718
  89     0.092522070408891
  90    -0.0011714467195509
  91    -0.0017482730008254
  92    4.8262088675592e-05
  93    3.3334782038898e-05
  94    0.00036611934655026
  95    0.00042050325449822
  96    -0.0027251015144828
  97     0.002901611781301
  98    0.0051752882410144
  99    -0.00063136828191394
 100    -0.0058687595515844
 101     0.010730821072197
 102    -0.0011001981003074
 103    -0.010124786502384
 104     0.018282322819986
 105    -0.0024946942152766
 106    -0.015340336152287
 107      0.03050232003781
 108    -0.00081933966485389
 109    0.00048149012952562
 110    0.00035591073907854
 111    -0.0004356017522087
 112    -0.0015587541094358
 113    0.0028934485119009
 114    -0.018839931868279
 115     0.022696884908236
 116     0.025847726522685
 117    0.00065538056376698
 118    -0.029085007294494
 119     0.022411480145387
 120    0.00084662758546156
 121    -0.049072781015181
 122     0.037483288590627
 123    0.00049749778558318
 124    -0.087998440938674
 125     0.065590731868577
 126    -0.00073980224276741
 127    0.00027302271215137
 128    0.00019336046259709
 129    -0.0011193981649364
 130    0.0019384366494166
 131    -0.00014882307950215
 132    0.00099702566124714
 133    -0.0015301601881682
 134    -0.0020931928214518
 135    -0.00029198929437677
 136    0.0014818101132188
 137    0.00036910246481564
 138    -0.00049346086372344
 139     0.002342434305549
 140    0.00068699453282015
 141    -0.0016585413513033
 142    0.0062357597282507
 143    0.0015389646327966
 144    -4.2252752806933e-05
 145    -0.00027834946011105
 146    0.00012853681644583
 147    3.8883976902291e-05
 148    -0.00029609294715606
 149      0.00018705577057
 150    -0.0012293037836637
 151    0.0010115387769544
 152     0.007080589374982
 153    0.0026158379876248
 154    0.00053575795537215
 155    -0.00086723174302434
 156    0.0045721581331007
 157    0.00097312221568739
 158    -0.0016919124280805
 159    0.0084751793793365
 160    -8.8713374063493e-05
 161    0.0010973011166747
 162    0.0001585116622883
 163    0.00027021173396316
 164    -0.00012560348966924
 165    -0.00019617619483751
 166    -0.00015076347049368
 167    -0.00039052453504272
 168    0.0026173839099408
 169    -0.0045574743308732
 170    -0.0029448246974931
 171    -0.0032727516093801
 172    -0.0014622866261174
 173    -0.00093410074768047
 174    -0.0058022178506438
 175    -0.0026059274348083
 176    -0.0014004209183517
 177    -0.0093232693553415
 178    -0.0051773001957384
 179    -0.0044423632678556
 180    -0.00037339747186718
 181    9.8068613736702e-05
 182    -0.0001068455896564
 183    0.00050675389448107
 184    0.00061839794871233
 Sym= A
 Ene=               3
 Spin= Alpha
 Occup=    1.00000
   1    0.00068052699124709
   2    -0.0020625987111066
   3     0.008883067370987
   4    -0.0094768759074994
   5    -0.0067509921215246
   6    0.0085665628323104
   7    -0.0079676029217908
   8    -0.0069697898423496
   9    -0.026637191157346
  10     0.024919606922855
  11     0.021950552140746
  12     0.025318926175005
  13    -0.026775883850282
  14    -0.024591951875386
  15     -0.14815973251158
  16      0.51433262747093
  17     -0.46315393661713
  18     -0.16930233083135
  19      0.47517042982056
  20    -0.041705545893289
  21      0.13333560313043
  22     -0.12212796239551
  23    -0.041231527541012
  24      0.12140194573186
  25    -0.0012531758923523
  26    0.0014708444749008
  27    -0.001092092996821
  28    0.0010126993012278
  29    0.0011350848074998
  30    5.065419552672e-05
  31    0.0012801322758158
  32    -0.0080124728608041
  33    -0.017701138554735
  34    -0.019437960679624
  35    -0.037813094732728
  36     0.055762154887479
  37      0.05255444868552
  38    -0.043673452171062
  39     0.055658628168692
  40     0.050621561008539
  41    -8.0613265768033e-05
  42    -0.0016300461114177
  43    0.00037885535758277
  44    0.00098279788332864
  45    -0.0011033630428878
  46    -0.0011483797923659
  47    0.0033704329870046
  48    -0.015559588444601
  49     0.016193739549847
  50    0.0019082666569407
  51    0.0044965681643686
  52    0.0017437836783731
  53    0.00015167968791204
  54    -0.014498011368032
  55    -0.0055728209653971
  56    -0.00052008205571685
  57     0.014076145965425
  58     0.012035538916559
  59     0.010343545438784
  60    -0.0025949916029242
  61    -0.0015020104641685
  62    -0.00023279694555664
  63    0.0046409116849479
  64    0.0015871067090462
  65    -0.001759743492562
  66    0.0018517459893933
  67    -0.0004301136075301
  68    0.0017068474114723
  69    0.0033610844806539
  70    9.9248394022066e-05
  71    -0.00041393843146679
  72    -0.00012455588241197
  73    -8.2746253653776e-05
  74    -0.00025761354696939
  75    0.00045226847501278
  76    0.00045667281027854
  77    -0.0018809656199006
  78     0.012404782595362
  79     -0.01735761349774
  80    -0.010278344972681
  81    -0.0067902824991791
  82     0.004607772069017
  83     0.025332320532378
  84    -0.011459425957098
  85    0.0076474194669754
  86     0.043699479059476
  87    -0.019673678151785
  88     0.012010650095537
  89     0.073192510808072
  90    0.0017022225882004
  91    -0.00045420337823851
  92    0.0011455049754141
  93    0.0010013128651287
  94    0.0013597211220985
  95    0.0057497019548398
  96    -0.037731568350199
  97     0.050197764234059
  98      0.03811579409323
  99    -0.032614681462275
 100     0.028072460356243
 101     0.041924453693238
 102    -0.056094743441296
 103     0.048278483583272
 104     0.071708755815624
 105    -0.094963720173866
 106     0.081736727946918
 107      0.12298874824201
 108    0.0012514870087222
 109    -0.0015100824477832
 110    0.00090642153815265
 111    0.00082288635139938
 112    -0.00046024415097532
 113    -0.0032966470840275
 114     0.021618046434247
 115    -0.029201705410901
 116    -0.020255997953956
 117    0.0029808600344158
 118     0.036040587946979
 119    -0.0006472081636575
 120     0.005416713110074
 121     0.061327351298747
 122    -0.00097291066374999
 123    0.0080460364065102
 124      0.10622576778724
 125    -0.0028866531531163
 126    -0.00036878566136487
 127    0.0010934872991019
 128    0.0020688950800206
 129    -0.00012137722894336
 130    -0.0011368915761922
 131    -0.00027589496104737
 132    0.0018181266964882
 133    -0.0016706679246151
 134    -0.0085795318093418
 135    -0.00052444422631366
 136    0.00035089748589102
 137    0.0015079084683385
 138    -0.0010592530395956
 139    0.00050439663884785
 140    0.0023630433893904
 141    -0.002046567432692
 142    0.0030613039496386
 143    0.0084929572002109
 144    9.0912466050572e-05
 145    -0.00066228288478959
 146    -7.014212473912e-06
 147    0.00019229130523624
 148    -0.00026095201361257
 149    -0.00014198875456577
 150    0.00094032770431634
 151    -0.0017257729552456
 152    0.00016775382884042
 153    -0.00087922744487679
 154    -0.00014726460849475
 155    -0.0010771599391156
 156    -0.0016260075787093
 157    1.8547091065603e-06
 158    -0.0018638535647633
 159    -0.002048531904718
 160    -0.0024065800551574
 161    -0.0025404949351679
 162    -0.00022460584263218
 163    0.00032172660843449
 164    -0.00010031496156278
 165    0.00024645814899383
 166    -0.00014304971096516
 167    9.8969445712098e-05
 168    -0.00067527263749634
 169    0.0010507121153435
 170    0.0023804683677463
 171    0.0017572139387463
 172    2.8461423899922e-05
 173    -0.00098263749022029
 174    0.0032264584685993
 175    -0.00012121430605142
 176    -0.0016892214286903
 177    0.0039994917000979
 178    0.0027572967581494
 179    -0.0022877777391863
 180    -6.5522555069914e-05
 181    0.00020724226333856
 182    0.00014345488742033