[Molden Format]
made by pyscf v[2.1.1]
[Atoms] (AU)
Fe   1   26     3.17068844873907     0.00098706064664     0.12237737881307
O   2   8     0.00000000000000     0.00000000000000    -0.89004350580623
Fe   3   26    -3.17068844873907    -0.00098706064664     0.12237737881307
Cl   4   17     3.53383895113107    -2.07485195383062     3.76228752659000
Cl   5   17     5.54152580550813    -1.85590924879884    -2.78672786652360
Cl   6   17     4.48169216485503     3.92976278472880    -0.95330240907949
Cl   7   17    -3.53383895113107     2.07485195383062     3.76228752659000
Cl   8   17    -5.54152580550813     1.85590924879884    -2.78672786652360
Cl   9   17    -4.48169216485503    -3.92976278472880    -0.95330240907949
[GTO]
1 0
 s    6 1.00
          60923.640643  0.0017552243692958
          9147.8893982   0.013449023284001
          2081.3505927   0.066678874640978
          587.55977067    0.23176348548844
           191.0904399    0.46945550248188
          65.732730112     0.3596824938678
 s    3 1.00
          127.25891928   -0.10723431835929
           14.83091301    0.62971616328466
          6.0653307408    0.44472317896179
 s    3 1.00
           10.44994371   -0.21694289195548
          1.7245228003    0.69457867408393
         0.71772177325    0.43298308896347
 s    1 1.00
        0.091449828308                   1
 s    1 1.00
        0.033706691021                   1
 p    5 1.00
          773.43750995  0.0091440529992506
          182.15149714   0.067887577136571
          57.547272758    0.26167978878504
          20.614988935    0.51088040113251
           7.634855789    0.33235475570224
 p    3 1.00
           3.871932799    0.33193859098144
          1.4924724132     0.5553666555499
         0.56061284958    0.23106034201617
 p    1 1.00
              0.134915                   1
 d    4 1.00
          38.968133419   0.033335938558743
          10.800067078    0.17766212505983
          3.6136457999      0.441281781625
          1.2129967888    0.57089200490673
 d    1 1.00
          0.3652439317                   1
 f    1 1.00
                 1.598                   1

2 0
 s    5 1.00
          2266.1767785  -0.0053893503921743
          340.87010191   -0.04023472138896
          77.363135167   -0.18008184205526
           21.47964494   -0.46828857657651
          6.6589433124   -0.44692617160187
 s    1 1.00
         0.80975975668                   1
 s    1 1.00
         0.25530772234                   1
 p    3 1.00
          17.721504317   0.062630248763161
           3.863550544    0.33331138482352
          1.0480920883    0.74148638308122
 p    1 1.00
         0.27641544411                   1
 d    1 1.00
                   1.2                   1

3 0
 s    6 1.00
          60923.640643  0.0017552243692958
          9147.8893982   0.013449023284001
          2081.3505927   0.066678874640978
          587.55977067    0.23176348548844
           191.0904399    0.46945550248188
          65.732730112     0.3596824938678
 s    3 1.00
          127.25891928   -0.10723431835929
           14.83091301    0.62971616328466
          6.0653307408    0.44472317896179
 s    3 1.00
           10.44994371   -0.21694289195548
          1.7245228003    0.69457867408393
         0.71772177325    0.43298308896347
 s    1 1.00
        0.091449828308                   1
 s    1 1.00
        0.033706691021                   1
 p    5 1.00
          773.43750995  0.0091440529992506
          182.15149714   0.067887577136571
          57.547272758    0.26167978878504
          20.614988935    0.51088040113251
           7.634855789    0.33235475570224
 p    3 1.00
           3.871932799    0.33193859098144
          1.4924724132     0.5553666555499
         0.56061284958    0.23106034201617
 p    1 1.00
              0.134915                   1
 d    4 1.00
          38.968133419   0.033335938558743
          10.800067078    0.17766212505983
          3.6136457999      0.441281781625
          1.2129967888    0.57089200490673
 d    1 1.00
          0.3652439317                   1
 f    1 1.00
                 1.598                   1

4 0
 s    5 1.00
          10449.827566  0.0054265953789407
          1571.7365221   0.040626378128836
          357.12065523    0.18359747852877
          100.25185935    0.47438948768198
          30.812727554    0.43735181104122
 s    3 1.00
          51.923789434  -0.092754154848099
          5.7045760975    0.56380825544207
          2.3508376809    0.50367044629712
 s    1 1.00
         0.44605124672                   1
 s    1 1.00
          0.1684885619                   1
 p    5 1.00
          307.66790569  -0.0088797025588865
          72.102015515  -0.064284071721237
          22.532680262   -0.24288739736006
          7.8991765444   -0.48340836369878
          2.8767268321   -0.38952563875509
 p    1 1.00
         0.77459363955                   1
 p    1 1.00
         0.21037699698                   1
 d    1 1.00
                  0.65                   1

5 0
 s    5 1.00
          10449.827566  0.0054265953789407
          1571.7365221   0.040626378128836
          357.12065523    0.18359747852877
          100.25185935    0.47438948768198
          30.812727554    0.43735181104122
 s    3 1.00
          51.923789434  -0.092754154848099
          5.7045760975    0.56380825544207
          2.3508376809    0.50367044629712
 s    1 1.00
         0.44605124672                   1
 s    1 1.00
          0.1684885619                   1
 p    5 1.00
          307.66790569  -0.0088797025588865
          72.102015515  -0.064284071721237
          22.532680262   -0.24288739736006
          7.8991765444   -0.48340836369878
          2.8767268321   -0.38952563875509
 p    1 1.00
         0.77459363955                   1
 p    1 1.00
         0.21037699698                   1
 d    1 1.00
                  0.65                   1

6 0
 s    5 1.00
          10449.827566  0.0054265953789407
          1571.7365221   0.040626378128836
          357.12065523    0.18359747852877
          100.25185935    0.47438948768198
          30.812727554    0.43735181104122
 s    3 1.00
          51.923789434  -0.092754154848099
          5.7045760975    0.56380825544207
          2.3508376809    0.50367044629712
 s    1 1.00
         0.44605124672                   1
 s    1 1.00
          0.1684885619                   1
 p    5 1.00
          307.66790569  -0.0088797025588865
          72.102015515  -0.064284071721237
          22.532680262   -0.24288739736006
          7.8991765444   -0.48340836369878
          2.8767268321   -0.38952563875509
 p    1 1.00
         0.77459363955                   1
 p    1 1.00
         0.21037699698                   1
 d    1 1.00
                  0.65                   1

7 0
 s    5 1.00
          10449.827566  0.0054265953789407
          1571.7365221   0.040626378128836
          357.12065523    0.18359747852877
          100.25185935    0.47438948768198
          30.812727554    0.43735181104122
 s    3 1.00
          51.923789434  -0.092754154848099
          5.7045760975    0.56380825544207
          2.3508376809    0.50367044629712
 s    1 1.00
         0.44605124672                   1
 s    1 1.00
          0.1684885619                   1
 p    5 1.00
          307.66790569  -0.0088797025588865
          72.102015515  -0.064284071721237
          22.532680262   -0.24288739736006
          7.8991765444   -0.48340836369878
          2.8767268321   -0.38952563875509
 p    1 1.00
         0.77459363955                   1
 p    1 1.00
         0.21037699698                   1
 d    1 1.00
                  0.65                   1

8 0
 s    5 1.00
          10449.827566  0.0054265953789407
          1571.7365221   0.040626378128836
          357.12065523    0.18359747852877
          100.25185935    0.47438948768198
          30.812727554    0.43735181104122
 s    3 1.00
          51.923789434  -0.092754154848099
          5.7045760975    0.56380825544207
          2.3508376809    0.50367044629712
 s    1 1.00
         0.44605124672                   1
 s    1 1.00
          0.1684885619                   1
 p    5 1.00
          307.66790569  -0.0088797025588865
          72.102015515  -0.064284071721237
          22.532680262   -0.24288739736006
          7.8991765444   -0.48340836369878
          2.8767268321   -0.38952563875509
 p    1 1.00
         0.77459363955                   1
 p    1 1.00
         0.21037699698                   1
 d    1 1.00
                  0.65                   1

9 0
 s    5 1.00
          10449.827566  0.0054265953789407
          1571.7365221   0.040626378128836
          357.12065523    0.18359747852877
          100.25185935    0.47438948768198
          30.812727554    0.43735181104122
 s    3 1.00
          51.923789434  -0.092754154848099
          5.7045760975    0.56380825544207
          2.3508376809    0.50367044629712
 s    1 1.00
         0.44605124672                   1
 s    1 1.00
          0.1684885619                   1
 p    5 1.00
          307.66790569  -0.0088797025588865
          72.102015515  -0.064284071721237
          22.532680262   -0.24288739736006
          7.8991765444   -0.48340836369878
          2.8767268321   -0.38952563875509
 p    1 1.00
         0.77459363955                   1
 p    1 1.00
         0.21037699698                   1
 d    1 1.00
                  0.65                   1

[5d]
[7f]
[9g]

[MO]
 Sym= A
 Ene=               0
 Spin= Alpha
 Occup=    1.00000
   1    0.0011842287592123
   2    -0.0034780513059689
   3     0.016105495119712
   4    -0.026667902018164
   5    0.0055867441610093
   6    0.0050230155796208
   7    -0.018031189613943
   8    -0.019737370320968
   9    -0.016383996854139
  10     0.055734401930511
  11     0.061032602827055
  12     0.023878354350038
  13    -0.049965024295855
  14    -0.056013829068765
  15     0.018140059411526
  16    -0.044285051315772
  17      0.08460653923719
  18     0.049925949002332
  19    -0.051443491402349
  20     0.010610522877465
  21     -0.02981326820494
  22      0.05553002420114
  23     0.032496508795292
  24    -0.034639690718813
  25    4.1109380715934e-06
  26    0.00091486041395103
  27    0.0007803043179546
  28    -0.00043955813736119
  29    0.0021838070625865
  30    0.00085673984264326
  31    -0.00045119687222429
  32    -8.9220745170653e-17
  33    -1.832092258828e-16
  34    -1.4649852770648e-16
  35    -0.0029211058007085
  36    -0.012708811868636
  37    1.0143840391929e-16
  38    -0.0018083372241187
  39    -0.0037762300019155
  40    4.271655529057e-17
  41    2.3053928601787e-18
  42    -0.00084746932022263
  43    0.00047508359485847
  44    -6.2753902765474e-18
  45    9.0065204776517e-18
  46    -0.0011842287592122
  47     0.003478051305969
  48    -0.016105495119712
  49     0.026667902018164
  50    -0.0055867441610094
  51    0.0050230155796209
  52    -0.018031189613943
  53     0.019737370320968
  54    -0.016383996854139
  55     0.055734401930512
  56    -0.061032602827056
  57     0.023878354350038
  58    -0.049965024295856
  59     0.056013829068765
  60    -0.018140059411526
  61    -0.044285051315773
  62     0.084606539237192
  63    -0.049925949002333
  64      0.05144349140235
  65    -0.010610522877465
  66     -0.02981326820494
  67     0.055530024201141
  68    -0.032496508795292
  69     0.034639690718813
  70    -4.1109380715965e-06
  71    0.00091486041395105
  72    0.00078030431795461
  73    0.0004395581373612
  74    -0.0021838070625865
  75    0.00085673984264328
  76    -0.0004511968722243
  77     -0.00440914686162
  78     0.027688699397204
  79    -0.037596947749195
  80    -0.010662614757987
  81    0.0016645018198413
  82    0.0053474195385396
  83     0.074806410813018
  84    0.0027850547639673
  85    0.0088728202748758
  86      0.12653964048993
  87     0.001640574875735
  88     0.023816530233479
  89      0.18279117359652
  90    -0.0073526468144284
  91    -0.0012913695529923
  92    0.0055214564200011
  93    0.00088585787044039
  94    -9.7439491044785e-05
  95    0.0088870585817424
  96    -0.056143178289895
  97     0.078684112686027
  98     0.018834553106399
  99    -0.062605957506795
 100     0.059521289005412
 101     0.089626764844517
 102      -0.1056978573056
 103      0.10051674894215
 104      0.15074098773304
 105     -0.14689184985152
 106      0.14561570339776
 107      0.21670300942184
 108    0.0062855952005876
 109    -0.011402706767954
 110    0.0090659881473551
 111    0.0036349231419039
 112    -0.0060889622683003
 113    -0.0066448526822825
 114     0.041871370799096
 115    -0.056219287602944
 116    -0.022839018163525
 117     0.028844605896392
 118     0.094928115461317
 119    0.0037921591024907
 120      0.04892788239217
 121      0.15937153327828
 122     0.006667931460555
 123     0.066564118071656
 124      0.23711582523255
 125     0.016785256245429
 126     0.004793842847465
 127    0.0014222523050016
 128    0.0069492190811744
 129    0.0075929078254825
 130    -0.0070521806436511
 131      0.00440914686162
 132    -0.027688699397204
 133     0.037596947749196
 134     0.010662614757987
 135    0.0016645018198414
 136    0.0053474195385398
 137    -0.074806410813019
 138    0.0027850547639674
 139    0.0088728202748761
 140     -0.12653964048994
 141    0.0016405748757352
 142      0.02381653023348
 143     -0.18279117359652
 144    0.0073526468144285
 145    -0.0012913695529923
 146    0.0055214564200012
 147    -0.00088585787044039
 148    9.7439491044784e-05
 149    -0.0088870585817425
 150     0.056143178289896
 151    -0.078684112686028
 152    -0.018834553106399
 153    -0.062605957506796
 154     0.059521289005413
 155    -0.089626764844519
 156      -0.1056978573056
 157      0.10051674894215
 158     -0.15074098773304
 159     -0.14689184985152
 160      0.14561570339776
 161     -0.21670300942184
 162    -0.0062855952005877
 163    -0.011402706767955
 164    0.0090659881473552
 165    -0.0036349231419039
 166    0.0060889622683004
 167    0.0066448526822826
 168    -0.041871370799097
 169     0.056219287602945
 170     0.022839018163525
 171     0.028844605896392
 172     0.094928115461319
 173    -0.0037921591024905
 174     0.048927882392171
 175      0.15937153327829
 176    -0.0066679314605549
 177     0.066564118071657
 178      0.23711582523255
 179    -0.016785256245428
 180    -0.004793842847465
 181    0.0014222523050016
 182    0.0069492190811745
 183    -0.0075929078254826
 184    0.0070521806436512
 Sym= A
 Ene=               1
 Spin= Alpha
 Occup=    1.00000
   1     0.000892107039727
   2    -0.0025003145369675
   3     0.012732531804033
   4    -0.026859097761878
   5     0.010009503506855
   6    0.0024634815282895
   7    -0.019782595024674
   8    -0.018864229939354
   9    -0.0087916044223113
  10     0.061025138591217
  11     0.058401342108399
  12     0.016430332105501
  13    -0.056157464313482
  14     -0.05288708837086
  15     0.023766466778873
  16    -0.039082960121356
  17     0.082245570155721
  18     0.049735741387408
  19    -0.053786473675977
  20     0.014202902823157
  21      -0.0259542053601
  22     0.053325659893928
  23     0.033889117456767
  24    -0.036064357361737
  25    0.0001733672144228
  26    0.00095944089763292
  27    0.00071851428409002
  28    -0.0006554572742098
  29    0.0021774822326667
  30    0.00081836962706402
  31    -0.00038211344430238
  32     0.013371439783284
  33     0.027531254594655
  34     0.022352757988508
  35    -1.5754589714912e-17
  36    -1.0385694047008e-16
  37    -0.018274682693434
  38    -8.7959796435013e-18
  39    -2.8211589470754e-17
  40    -0.010372824723258
  41    -0.0004458109895891
  42    -6.5211255871162e-18
  43    3.6061206938259e-18
  44    0.00084396087152125
  45    -0.0011420998144203
  46    0.00089210703972698
  47    -0.0025003145369675
  48     0.012732531804032
  49    -0.026859097761878
  50     0.010009503506855
  51    -0.0024634815282894
  52     0.019782595024674
  53    -0.018864229939354
  54     0.008791604422311
  55    -0.061025138591216
  56     0.058401342108398
  57    -0.016430332105501
  58     0.056157464313481
  59    -0.052887088370859
  60     0.023766466778873
  61     0.039082960121355
  62    -0.082245570155719
  63     0.049735741387408
  64    -0.053786473675976
  65     0.014202902823157
  66       0.0259542053601
  67    -0.053325659893927
  68     0.033889117456766
  69    -0.036064357361736
  70    0.0001733672144228
  71    -0.0009594408976329
  72    -0.00071851428409001
  73    -0.00065545727420979
  74    0.0021774822326667
  75    -0.000818369627064
  76    0.00038211344430237
  77    -0.0040220089925052
  78     0.025266454477788
  79     -0.03399145453759
  80    -0.012032530488337
  81    0.0027799801065128
  82     0.010623276944549
  83     0.070819119683366
  84    0.0048740412873688
  85     0.017637334005332
  86      0.11961084737966
  87    0.0042472330667669
  88      0.03715629920645
  89      0.17484611477138
  90    -0.0069082310977791
  91    -0.0016712088553448
  92     0.004803018024661
  93    0.00027621537365489
  94    6.7128592691531e-05
  95    0.0088526734232319
  96    -0.055950982592018
  97     0.078682418652158
  98     0.018323661556783
  99    -0.064212454552079
 100     0.060356005512584
 101     0.086473662418359
 102     -0.10842528935207
 103      0.10172627807076
 104      0.14536161829491
 105     -0.15099488688142
 106      0.14935284708495
 107      0.20939038567772
 108    0.0060677823702728
 109    -0.011478512268416
 110    0.0089817340336911
 111    0.0038041928221722
 112    -0.0062781734900858
 113    -0.0069187167014563
 114     0.043564819427204
 115     -0.05821852187445
 116    -0.023553903710367
 117     0.025457912951891
 118      0.09940460508893
 119    -0.00038111890241675
 120     0.043096184093303
 121      0.16715623551764
 122    -0.00027928720798351
 123     0.058086527392675
 124      0.24607020968373
 125    0.0062031664018507
 126    0.0047882189097989
 127    0.0014643158221289
 128    0.0074764322463556
 129    0.0079425702850404
 130    -0.0069103883227207
 131    -0.0040220089925051
 132     0.025266454477787
 133     -0.03399145453759
 134    -0.012032530488337
 135    -0.0027799801065128
 136    -0.010623276944548
 137     0.070819119683365
 138    -0.0048740412873687
 139    -0.017637334005332
 140      0.11961084737965
 141    -0.0042472330667669
 142     -0.03715629920645
 143      0.17484611477138
 144    -0.006908231097779
 145    0.0016712088553448
 146    -0.004803018024661
 147    0.00027621537365489
 148    6.7128592691533e-05
 149    0.0088526734232317
 150    -0.055950982592017
 151     0.078682418652157
 152     0.018323661556782
 153     0.064212454552078
 154    -0.060356005512583
 155     0.086473662418358
 156      0.10842528935207
 157     -0.10172627807075
 158      0.14536161829491
 159      0.15099488688142
 160     -0.14935284708495
 161      0.20939038567771
 162    0.0060677823702727
 163     0.011478512268415
 164    -0.008981734033691
 165    0.0038041928221721
 166    -0.0062781734900857
 167    -0.0069187167014562
 168     0.043564819427203
 169    -0.058218521874449
 170    -0.023553903710367
 171    -0.025457912951891
 172    -0.099404605088929
 173    -0.00038111890241675
 174    -0.043096184093302
 175     -0.16715623551764
 176    -0.00027928720798349
 177    -0.058086527392674
 178     -0.24607020968373
 179    0.0062031664018506
 180    0.0047882189097988
 181    -0.0014643158221289
 182    -0.0074764322463554
 183    0.0079425702850403
 184    -0.0069103883227206
 Sym= A
 Ene=               2
 Spin= Alpha
 Occup=    1.00000
   1    -0.0019128521853572
   2    0.0057054588813773
   3    -0.025573410536094
   4      0.03588940740459
   5    -0.025566384025191
   6    -2.4765624385792e-05
   7    -0.017666353837356
   8     0.016920108705464
   9    0.0013223552290199
  10     0.055624080856713
  11    -0.053194670221887
  12    -0.016503321002379
  13    -0.055790115432333
  14     0.052957214011421
  15     0.076880389875514
  16    0.0084026282211524
  17    -0.035570761454036
  18     0.020439073888209
  19    -0.019802807119402
  20     0.055113400175522
  21    0.0071380132036621
  22    -0.026268896114569
  23     0.014931342890941
  24    -0.012876912905558
  25    0.00062011698481521
  26    0.0011934883582032
  27    -0.0011055418962231
  28    -0.00093722190013206
  29    -0.00045430473425821
  30    0.0010366433693352
  31    0.00057003720242962
  32    3.1513223255998e-15
  33    6.1289132916348e-15
  34    5.5615050500867e-15
  35    0.00076837401058362
  36    -0.012851638834503
  37    -2.4474985401352e-16
  38    0.0014209915404589
  39    -0.0024949975262198
  40    -3.262676838627e-17
  41    -7.0153145721665e-17
  42    0.00040479942304943
  43    -0.00073339810374892
  44    1.3460774061361e-16
  45    -5.9067740971835e-20
  46    0.0019128521853572
  47    -0.0057054588813776
  48     0.025573410536096
  49    -0.035889407404595
  50     0.025566384025193
  51    -2.4765624384471e-05
  52    -0.017666353837357
  53    -0.016920108705464
  54     0.001322355229016
  55     0.055624080856713
  56     0.053194670221888
  57    -0.016503321002378
  58    -0.055790115432333
  59    -0.052957214011422
  60    -0.076880389875515
  61    0.0084026282211505
  62    -0.035570761454037
  63    -0.020439073888207
  64     0.019802807119403
  65    -0.055113400175523
  66    0.0071380132036608
  67    -0.026268896114569
  68     -0.01493134289094
  69     0.012876912905558
  70    -0.0006201169848152
  71    0.0011934883582032
  72    -0.0011055418962232
  73    0.00093722190013202
  74    0.00045430473425818
  75    0.0010366433693352
  76    0.0005700372024296
  77    0.0087713213659072
  78    -0.054920519851444
  79     0.070869947437147
  80     0.026222241118798
  81    -0.0059526976222469
  82     0.096158940091292
  83      -0.0917108091398
  84    -0.010477920656831
  85      0.16130661696726
  86     -0.15465606206501
  87    -0.010075506539454
  88      0.23912835801138
  89     -0.21451324305647
  90    0.0082957241768082
  91    0.0014753882395934
  92    -0.016435190746763
  93    -0.0062482996828125
  94    -0.00066706233164732
  95    0.0002648137642813
  96    -0.0016097569977776
  97    -0.00047531705769712
  98     0.011039342251703
  99    -0.013711039299706
 100     0.047965841994588
 101    -0.041170751943085
 102    -0.022996559390603
 103     0.079902467098464
 104    -0.069165971146123
 105    -0.036426833082854
 106      0.13248592537737
 107     -0.10758625512271
 108    -0.0029256879087704
 109    7.0203207277582e-05
 110    0.00092637845647257
 111    -0.00017275868723333
 112    -0.0026928185432763
 113    -0.0052821738466022
 114     0.033218297544042
 115    -0.045256911077449
 116    -0.0082750516240024
 117     0.015496608065365
 118     0.065821177786345
 119    -0.070435315105249
 120     0.025760427492517
 121      0.11053933900829
 122     -0.11708160231824
 123     0.036352931047912
 124      0.15724483812215
 125      -0.1842910580105
 126    0.0014632436710716
 127    0.0023018797509482
 128     0.010287132183831
 129    0.0058722393182922
 130    -0.0041576157410206
 131    -0.0087713213659073
 132     0.054920519851444
 133    -0.070869947437148
 134    -0.026222241118799
 135    -0.0059526976222491
 136     0.096158940091293
 137     0.091710809139802
 138    -0.010477920656835
 139      0.16130661696726
 140      0.15465606206501
 141     -0.01007550653946
 142      0.23912835801139
 143      0.21451324305648
 144    -0.0082957241768084
 145    0.0014753882395935
 146    -0.016435190746763
 147    0.0062482996828126
 148    0.00066706233164743
 149    -0.00026481376428147
 150    0.0016097569977787
 151    0.00047531705769574
 152    -0.011039342251704
 153    -0.013711039299709
 154     0.047965841994589
 155     0.041170751943084
 156    -0.022996559390607
 157     0.079902467098467
 158     0.069165971146121
 159     -0.03642683308286
 160      0.13248592537738
 161      0.10758625512271
 162    0.0029256879087704
 163    7.0203207277265e-05
 164    0.00092637845647276
 165    0.00017275868723327
 166    0.0026928185432765
 167    0.0052821738466021
 168    -0.033218297544042
 169     0.045256911077448
 170    0.0082750516240024
 171     0.015496608065364
 172     0.065821177786344
 173      0.07043531510525
 174     0.025760427492514
 175      0.11053933900829
 176      0.11708160231825
 177     0.036352931047908
 178      0.15724483812215
 179       0.1842910580105
 180    -0.0014632436710715
 181    0.0023018797509482
 182     0.010287132183831
 183    -0.005872239318292
 184    0.0041576157410205
 Sym= A
 Ene=               3
 Spin= Alpha
 Occup=    1.00000
   1    0.0032236941533795
   2    -0.0086017607903547
   3     0.047962182240492
   4     -0.10282786964166
   5     0.032840972360543
   6     -0.02614187198923
   7     0.013625526131242
   8    -0.015561782925447
   9     0.075046938549644
  10    -0.042714560099559
  11     0.047955567426021
  12    0.0010682849822969
  13     0.039913121125248
  14    -0.041054021156165
  15    -0.070907589661263
  16     0.030003938424064
  17     0.031368951397847
  18     0.016623063543423
  19     0.017441358487302
  20    -0.048995361091366
  21     0.020964598015305
  22     0.023224424882906
  23    0.0088456121252213
  24     0.011835297397908
  25    -9.475850059846e-05
  26    -0.00059395649630363
  27    0.0017032727913603
  28    -0.00034078703218535
  29    -0.00012118553234522
  30    -0.0016951555342318
  31    -0.00010606998366404
  32      0.12454885837615
  33      0.24324012209882
  34      0.21880780504426
  35    -1.3887982431704e-17
  36    1.8812752264049e-16
  37    -0.018885462522842
  38    -1.9765657781328e-17
  39    4.1013375804504e-17
  40     -0.00394147488429
  41    -0.0034501927709393
  42    -5.396798723259e-18
  43    1.0080371043747e-17
  44    0.0050952717090825
  45    0.00034108308111102
  46    0.0032236941533795
  47    -0.0086017607903546
  48     0.047962182240492
  49     -0.10282786964166
  50     0.032840972360542
  51      0.02614187198923
  52    -0.013625526131242
  53    -0.015561782925446
  54    -0.075046938549644
  55     0.042714560099557
  56      0.04795556742602
  57    -0.0010682849822965
  58    -0.039913121125246
  59    -0.041054021156163
  60    -0.070907589661261
  61    -0.030003938424064
  62    -0.031368951397846
  63     0.016623063543423
  64     0.017441358487301
  65    -0.048995361091364
  66    -0.020964598015306
  67    -0.023224424882906
  68    0.0088456121252217
  69     0.011835297397908
  70    -9.4758500598443e-05
  71    0.00059395649630359
  72    -0.0017032727913602
  73    -0.00034078703218537
  74    -0.00012118553234523
  75    0.0016951555342317
  76    0.00010606998366403
  77    -0.0079836739060443
  78     0.049731525830447
  79    -0.061714390357676
  80    -0.024610420899155
  81     0.044666677892616
  82     -0.07615852231415
  83     0.091214301917633
  84      0.07479514439472
  85     -0.12752361627509
  86      0.15385296456337
  87      0.11423635846723
  88     -0.18650774836628
  89      0.21149676577344
  90    -0.008984781497183
  91    -0.0041626073716993
  92     0.014855169072251
  93    0.0050129063387245
  94    0.0028369344401116
  95    -0.0028929280454359
  96     0.018013669208275
  97    -0.021552243166374
  98    -0.013275229615114
  99     0.046113604170614
 100    -0.054920137698913
 101      0.01260069018481
 102     0.077220911145063
 103     -0.09192186278467
 104     0.021164114611726
 105      0.11623526499066
 106     -0.14287061857975
 107     0.040572392935178
 108    0.0014525087286817
 109    0.0050622705857317
 110    -0.0040456988869892
 111    -0.00052358764428869
 112    0.0053938540245685
 113    0.0017202163551466
 114    -0.010983467033265
 115     0.016255088532115
 116    0.0015516938586795
 117     0.022384006333937
 118    -0.020070831072523
 119     0.055620685270308
 120     0.037617309788945
 121     -0.03363414217295
 122     0.092735578198462
 123      0.06020354359861
 124    -0.051100692033056
 125      0.14697573828242
 126    0.0014078264302911
 127    -0.00024798065425443
 128    -0.0062982188682846
 129    -0.00067254857933944
 130    -0.00046654117345861
 131    -0.007983673906044
 132     0.049731525830446
 133    -0.061714390357674
 134    -0.024610420899154
 135    -0.044666677892616
 136     0.076158522314147
 137      0.09121430191763
 138     -0.07479514439472
 139      0.12752361627509
 140      0.15385296456336
 141     -0.11423635846723
 142      0.18650774836627
 143      0.21149676577344
 144    -0.0089847814971828
 145    0.0041626073716993
 146     -0.01485516907225
 147    0.0050129063387243
 148    0.0028369344401115
 149    -0.0028929280454359
 150     0.018013669208275
 151    -0.021552243166374
 152    -0.013275229615114
 153    -0.046113604170614
 154     0.054920137698912
 155     0.012600690184809
 156    -0.077220911145062
 157     0.091921862784668
 158     0.021164114611724
 159     -0.11623526499066
 160      0.14287061857974
 161     0.040572392935175
 162    0.0014525087286816
 163    -0.0050622705857317
 164    0.0040456988869892
 165    -0.00052358764428869
 166    0.0053938540245684
 167    0.0017202163551464
 168    -0.010983467033264
 169     0.016255088532113
 170    0.0015516938586792
 171    -0.022384006333937
 172     0.020070831072521
 173     0.055620685270306
 174    -0.037617309788946
 175     0.033634142172947
 176     0.092735578198458
 177    -0.060203543598611
 178     0.051100692033051
 179      0.14697573828241
 180    0.0014078264302911
 181    0.00024798065425437
 182    0.0062982188682843
 183    -0.00067254857933928
 184    -0.00046654117345873
 Sym= A
 Ene=               4
 Spin= Alpha
 Occup=    1.00000
   1    0.0013781002797402
   2    -0.0029732370462717
   3     0.023820765889012
   4    -0.076014092021647
   5      0.01122216528709