[Molden Format]
made by pyscf v[2.1.1]
[Atoms] (AU)
Fe   1   26     3.17068844873907     0.00098706064664     0.12237737881307
O   2   8     0.00000000000000     0.00000000000000    -0.89004350580623
Fe   3   26    -3.17068844873907    -0.00098706064664     0.12237737881307
Cl   4   17     3.53383895113107    -2.07485195383062     3.76228752659000
Cl   5   17     5.54152580550813    -1.85590924879884    -2.78672786652360
Cl   6   17     4.48169216485503     3.92976278472880    -0.95330240907949
Cl   7   17    -3.53383895113107     2.07485195383062     3.76228752659000
Cl   8   17    -5.54152580550813     1.85590924879884    -2.78672786652360
Cl   9   17    -4.48169216485503    -3.92976278472880    -0.95330240907949
[GTO]
1 0
 s    6 1.00
          60923.640643  0.0017552243692958
          9147.8893982   0.013449023284001
          2081.3505927   0.066678874640978
          587.55977067    0.23176348548844
           191.0904399    0.46945550248188
          65.732730112     0.3596824938678
 s    3 1.00
          127.25891928   -0.10723431835929
           14.83091301    0.62971616328466
          6.0653307408    0.44472317896179
 s    3 1.00
           10.44994371   -0.21694289195548
          1.7245228003    0.69457867408393
         0.71772177325    0.43298308896347
 s    1 1.00
        0.091449828308                   1
 s    1 1.00
        0.033706691021                   1
 p    5 1.00
          773.43750995  0.0091440529992506
          182.15149714   0.067887577136571
          57.547272758    0.26167978878504
          20.614988935    0.51088040113251
           7.634855789    0.33235475570224
 p    3 1.00
           3.871932799    0.33193859098144
          1.4924724132     0.5553666555499
         0.56061284958    0.23106034201617
 p    1 1.00
              0.134915                   1
 d    4 1.00
          38.968133419   0.033335938558743
          10.800067078    0.17766212505983
          3.6136457999      0.441281781625
          1.2129967888    0.57089200490673
 d    1 1.00
          0.3652439317                   1
 f    1 1.00
                 1.598                   1

2 0
 s    5 1.00
          2266.1767785  -0.0053893503921743
          340.87010191   -0.04023472138896
          77.363135167   -0.18008184205526
           21.47964494   -0.46828857657651
          6.6589433124   -0.44692617160187
 s    1 1.00
         0.80975975668                   1
 s    1 1.00
         0.25530772234                   1
 p    3 1.00
          17.721504317   0.062630248763161
           3.863550544    0.33331138482352
          1.0480920883    0.74148638308122
 p    1 1.00
         0.27641544411                   1
 d    1 1.00
                   1.2                   1

3 0
 s    6 1.00
          60923.640643  0.0017552243692958
          9147.8893982   0.013449023284001
          2081.3505927   0.066678874640978
          587.55977067    0.23176348548844
           191.0904399    0.46945550248188
          65.732730112     0.3596824938678
 s    3 1.00
          127.25891928   -0.10723431835929
           14.83091301    0.62971616328466
          6.0653307408    0.44472317896179
 s    3 1.00
           10.44994371   -0.21694289195548
          1.7245228003    0.69457867408393
         0.71772177325    0.43298308896347
 s    1 1.00
        0.091449828308                   1
 s    1 1.00
        0.033706691021                   1
 p    5 1.00
          773.43750995  0.0091440529992506
          182.15149714   0.067887577136571
          57.547272758    0.26167978878504
          20.614988935    0.51088040113251
           7.634855789    0.33235475570224
 p    3 1.00
           3.871932799    0.33193859098144
          1.4924724132     0.5553666555499
         0.56061284958    0.23106034201617
 p    1 1.00
              0.134915                   1
 d    4 1.00
          38.968133419   0.033335938558743
          10.800067078    0.17766212505983
          3.6136457999      0.441281781625
          1.2129967888    0.57089200490673
 d    1 1.00
          0.3652439317                   1
 f    1 1.00
                 1.598                   1

4 0
 s    5 1.00
          10449.827566  0.0054265953789407
          1571.7365221   0.040626378128836
          357.12065523    0.18359747852877
          100.25185935    0.47438948768198
          30.812727554    0.43735181104122
 s    3 1.00
          51.923789434  -0.092754154848099
          5.7045760975    0.56380825544207
          2.3508376809    0.50367044629712
 s    1 1.00
         0.44605124672                   1
 s    1 1.00
          0.1684885619                   1
 p    5 1.00
          307.66790569  -0.0088797025588865
          72.102015515  -0.064284071721237
          22.532680262   -0.24288739736006
          7.8991765444   -0.48340836369878
          2.8767268321   -0.38952563875509
 p    1 1.00
         0.77459363955                   1
 p    1 1.00
         0.21037699698                   1
 d    1 1.00
                  0.65                   1

5 0
 s    5 1.00
          10449.827566  0.0054265953789407
          1571.7365221   0.040626378128836
          357.12065523    0.18359747852877
          100.25185935    0.47438948768198
          30.812727554    0.43735181104122
 s    3 1.00
          51.923789434  -0.092754154848099
          5.7045760975    0.56380825544207
          2.3508376809    0.50367044629712
 s    1 1.00
         0.44605124672                   1
 s    1 1.00
          0.1684885619                   1
 p    5 1.00
          307.66790569  -0.0088797025588865
          72.102015515  -0.064284071721237
          22.532680262   -0.24288739736006
          7.8991765444   -0.48340836369878
          2.8767268321   -0.38952563875509
 p    1 1.00
         0.77459363955                   1
 p    1 1.00
         0.21037699698                   1
 d    1 1.00
                  0.65                   1

6 0
 s    5 1.00
          10449.827566  0.0054265953789407
          1571.7365221   0.040626378128836
          357.12065523    0.18359747852877
          100.25185935    0.47438948768198
          30.812727554    0.43735181104122
 s    3 1.00
          51.923789434  -0.092754154848099
          5.7045760975    0.56380825544207
          2.3508376809    0.50367044629712
 s    1 1.00
         0.44605124672                   1
 s    1 1.00
          0.1684885619                   1
 p    5 1.00
          307.66790569  -0.0088797025588865
          72.102015515  -0.064284071721237
          22.532680262   -0.24288739736006
          7.8991765444   -0.48340836369878
          2.8767268321   -0.38952563875509
 p    1 1.00
         0.77459363955                   1
 p    1 1.00
         0.21037699698                   1
 d    1 1.00
                  0.65                   1

7 0
 s    5 1.00
          10449.827566  0.0054265953789407
          1571.7365221   0.040626378128836
          357.12065523    0.18359747852877
          100.25185935    0.47438948768198
          30.812727554    0.43735181104122
 s    3 1.00
          51.923789434  -0.092754154848099
          5.7045760975    0.56380825544207
          2.3508376809    0.50367044629712
 s    1 1.00
         0.44605124672                   1
 s    1 1.00
          0.1684885619                   1
 p    5 1.00
          307.66790569  -0.0088797025588865
          72.102015515  -0.064284071721237
          22.532680262   -0.24288739736006
          7.8991765444   -0.48340836369878
          2.8767268321   -0.38952563875509
 p    1 1.00
         0.77459363955                   1
 p    1 1.00
         0.21037699698                   1
 d    1 1.00
                  0.65                   1

8 0
 s    5 1.00
          10449.827566  0.0054265953789407
          1571.7365221   0.040626378128836
          357.12065523    0.18359747852877
          100.25185935    0.47438948768198
          30.812727554    0.43735181104122
 s    3 1.00
          51.923789434  -0.092754154848099
          5.7045760975    0.56380825544207
          2.3508376809    0.50367044629712
 s    1 1.00
         0.44605124672                   1
 s    1 1.00
          0.1684885619                   1
 p    5 1.00
          307.66790569  -0.0088797025588865
          72.102015515  -0.064284071721237
          22.532680262   -0.24288739736006
          7.8991765444   -0.48340836369878
          2.8767268321   -0.38952563875509
 p    1 1.00
         0.77459363955                   1
 p    1 1.00
         0.21037699698                   1
 d    1 1.00
                  0.65                   1

9 0
 s    5 1.00
          10449.827566  0.0054265953789407
          1571.7365221   0.040626378128836
          357.12065523    0.18359747852877
          100.25185935    0.47438948768198
          30.812727554    0.43735181104122
 s    3 1.00
          51.923789434  -0.092754154848099
          5.7045760975    0.56380825544207
          2.3508376809    0.50367044629712
 s    1 1.00
         0.44605124672                   1
 s    1 1.00
          0.1684885619                   1
 p    5 1.00
          307.66790569  -0.0088797025588865
          72.102015515  -0.064284071721237
          22.532680262   -0.24288739736006
          7.8991765444   -0.48340836369878
          2.8767268321   -0.38952563875509
 p    1 1.00
         0.77459363955                   1
 p    1 1.00
         0.21037699698                   1
 d    1 1.00
                  0.65                   1

[5d]
[7f]
[9g]

[MO]
 Sym= B
 Ene=               0
 Spin= Alpha
 Occup=    1.00000
   1    -0.0013760613189806
   2    0.0039562940632984
   3    -0.019155991321005
   4     0.016125400463627
   5    -0.0066451293849365
   6    -0.0045319317833489
   7     0.012644989241252
   8    -0.0011181295970208
   9      0.01534129873698
  10    -0.041076337066025
  11     0.003898281105472
  12    -0.014616213409228
  13     0.090265606166258
  14    -0.0039865517824595
  15    -0.00088493166079091
  16     0.015636484121162
  17    -0.026028092547474
  18     0.033478914540345
  19     -0.11160865096934
  20    -0.0019822174322969
  21    0.0071679160397105
  22    -0.016470179747709
  23     0.015448529997735
  24    -0.071271241500436
  25    0.00049920977867036
  26    0.00036423530677388
  27    -0.00068330029594153
  28    -0.00092704147289915
  29    0.0019891123452603
  30    -0.00075107657939197
  31    0.0041280547039249
  32    -3.3389204957053e-17
  33    -1.2505295228604e-16
  34    -8.7790031636018e-17
  35       0.1005087640415
  36       0.5478425630667
  37    2.3322987874453e-15
  38     0.081939997059158
  39      0.47179007037077
  40    2.0114109427447e-15
  41    5.1541180752639e-17
  42     0.002784302536587
  43      0.01123855504742
  44    5.4478275346926e-18
  45    1.8548467634178e-18
  46    0.0013760613189806
  47    -0.0039562940632984
  48     0.019155991321004
  49    -0.016125400463626
  50    0.0066451293849363
  51    -0.0045319317833488
  52     0.012644989241252
  53    0.0011181295970208
  54     0.015341298736979
  55    -0.041076337066025
  56    -0.0038982811054722
  57    -0.014616213409228
  58     0.090265606166258
  59    0.0039865517824602
  60    0.00088493166079058
  61     0.015636484121162
  62    -0.026028092547474
  63    -0.033478914540344
  64      0.11160865096934
  65    0.0019822174322967
  66    0.0071679160397108
  67    -0.016470179747709
  68    -0.015448529997734
  69     0.071271241500436
  70    -0.00049920977867037
  71    0.00036423530677384
  72    -0.00068330029594153
  73    0.00092704147289916
  74    -0.0019891123452603
  75    -0.00075107657939195
  76    0.0041280547039249
  77    0.00058856550275331
  78    -0.0038655562542265
  79    0.0045474150886015
  80     0.015145972417742
  81    -0.0034916314567657
  82    -0.0026466114607999
  83    -0.0044908733053724
  84    -0.0070177214191706
  85    -0.0041960691776846
  86    -0.0070569372607814
  87    -0.006550282044338
  88    -0.008076103394016
  89    -0.022415280865843
  90    0.00085598878494538
  91    -0.0020928492006218
  92    -0.0011683958261762
  93    -0.00096653447307366
  94    -8.9920754387915e-05
  95    0.0004749195026365
  96    -0.0030590360000912
  97    0.0028322849640244
  98     0.014647444748163
  99    -0.0038981247733045
 100    -0.0017298480577735
 101    0.0021257136914626
 102    -0.0069197052514609
 103    -0.0025127173799217
 104    0.0026897365991316
 105    -0.013952892914776
 106    -0.007098753772301
 107     0.014375070478445
 108    0.0018882560787015
 109    -0.00036865850459347
 110    0.00046224665882129
 111    -0.00068801416201341
 112    -0.00060077378399322
 113    -0.001883182393714
 114     0.012452093299987
 115    -0.019116048459973
 116    -0.024855339222139
 117     0.011860634894876
 118    0.0079685731474795
 119    -0.0016415234821854
 120     0.021758793012953
 121     0.013257762863409
 122    -0.001967075386955
 123     0.033476997034694
 124     0.033305289444603
 125    -0.010741569014151
 126    -0.0014483085475039
 127    0.00045427132021419
 128    0.0020665980714076
 129    0.0044449439675112
 130    0.0030348313069381
 131    -0.00058856550275334
 132    0.0038655562542266
 133    -0.0045474150886017
 134    -0.015145972417742
 135    -0.0034916314567658
 136    -0.0026466114607998
 137    0.0044908733053725
 138    -0.0070177214191708
 139    -0.0041960691776845
 140    0.0070569372607815
 141    -0.0065502820443383
 142    -0.0080761033940157
 143     0.022415280865843
 144    -0.00085598878494539
 145    -0.0020928492006218
 146    -0.0011683958261762
 147    0.00096653447307368
 148    8.9920754387902e-05
 149    -0.0004749195026365
 150    0.0030590360000912
 151    -0.0028322849640244
 152    -0.014647444748163
 153    -0.0038981247733045
 154    -0.0017298480577735
 155    -0.0021257136914627
 156    -0.0069197052514608
 157    -0.0025127173799217
 158    -0.0026897365991316
 159    -0.013952892914776
 160    -0.0070987537723011
 161    -0.014375070478445
 162    -0.0018882560787015
 163    -0.00036865850459347
 164    0.00046224665882127
 165    0.00068801416201339
 166    0.00060077378399322
 167     0.001883182393714
 168    -0.012452093299987
 169     0.019116048459973
 170      0.02485533922214
 171     0.011860634894875
 172    0.0079685731474795
 173    0.0016415234821854
 174     0.021758793012953
 175     0.013257762863409
 176    0.0019670753869549
 177     0.033476997034694
 178     0.033305289444603
 179     0.010741569014151
 180    0.0014483085475039
 181    0.00045427132021421
 182    0.0020665980714076
 183    -0.0044449439675112
 184    -0.0030348313069381
 Sym= A
 Ene=               1
 Spin= Alpha
 Occup=    1.00000
   1    -0.002874136179772
   2    0.0081765453239896
   3    -0.040351367687713
   4     0.056129543798506
   5    -0.032604378061994
   6    -0.011934939158828
   7    0.00050132405218143
   8    0.0096328186922956
   9     0.040020100525569
  10    -0.0015203542644644
  11    -0.030919832382086
  12    -0.054324970270349
  13    -0.0016633063700743
  14     0.083844235168848
  15    -0.075704718468508
  16    -0.061603427844666
  17     0.012346044927927
  18      0.07686896091937
  19    -0.0037612786188263
  20    -0.042153080703305
  21    -0.045897711435913
  22    0.0042169810101563
  23     0.040448705870215
  24    -0.0019559873380061
  25    -0.00090822553055716
  26    0.0036969498803351
  27    0.00023217476893237
  28    0.0015934887691307
  29    6.1834493284339e-05
  30    -0.0024708687748915
  31    -2.5376886111224e-05
  32    -0.0084505818754089
  33    -0.030582317907362
  34    -0.022176541940981
  35    -3.155473057019e-16
  36    -2.2766836021564e-15
  37      0.54941695002656
  38    -2.5507609530735e-16
  39    -1.9558266881411e-15
  40       0.4729892920635
  41     0.012201002462251
  42    -9.285672292649e-18
  43    -4.683514756282e-17
  44    0.0012228230303882
  45    0.00012012926105206
  46    -0.0028741361797719
  47    0.0081765453239893
  48    -0.040351367687713
  49     0.056129543798506
  50    -0.032604378061994
  51     0.011934939158828
  52    -0.00050132405218154
  53    0.0096328186922956
  54    -0.040020100525569
  55    0.0015203542644647
  56    -0.030919832382086
  57     0.054324970270349
  58    0.0016633063700736
  59     0.083844235168848
  60    -0.075704718468508
  61     0.061603427844666
  62    -0.012346044927927
  63      0.07686896091937
  64    -0.0037612786188274
  65    -0.042153080703305
  66     0.045897711435913
  67    -0.0042169810101561
  68     0.040448705870216
  69    -0.0019559873380067
  70    -0.00090822553055715
  71    -0.0036969498803351
  72    -0.00023217476893236
  73    0.0015934887691306
  74    6.1834493284354e-05
  75    0.0024708687748915
  76    2.537688611119e-05
  77    -0.0017337489962503
  78     0.011506440963128
  79    -0.019678040211756
  80    -0.018066367402033
  81    0.0099145029989392
  82    -0.0068127896891446
  83    0.0090417794873453
  84     0.018087676358319
  85     -0.01097783943397
  86     0.015664867918657
  87     0.027075389999369
  88    -0.027767736866293
  89     0.032414767235546
  90    -0.0013949901438643
  91    0.0026496269140511
  92    0.0011742563489757
  93    0.0023636784079059
  94    -0.0015648306118134
  95    0.00071214793408883
  96    -0.004520737146786
  97    0.0019369917712718
  98     0.031227398455791
  99    -0.0052091083237394
 100    0.0020470117113437
 101    -0.00067022790759804
 102    -0.0094555261100378
 103     0.002687303859575
 104    -0.0017928324809272
 105    -0.019370843235718
 106     0.015001552654034
 107    0.0061159751529209
 108    0.0019073610736444
 109    -0.0011661298522211
 110    0.0019350253635711
 111    -0.0020215124852785
 112    0.00022469564560623
 113    -1.5223088536403e-05
 114    0.00020171457718507
 115     -0.00470262763463
 116     0.016836730106149
 117    0.00087785296649518
 118    0.00069025635106752
 119    -0.0049395429981055
 120    0.00099733065030023
 121    0.0020013833923553
 122    -0.0082160229341233
 123    0.0036346038496839
 124    -0.007559078661172
 125    -0.016219613723488
 126    -0.00057492521945552
 127    -0.0011906741221915
 128    -0.00078485273634894
 129    -0.00094160212131993
 130    -0.00068290545586057
 131    -0.0017337489962503
 132     0.011506440963128
 133    -0.019678040211756
 134    -0.018066367402032
 135    -0.0099145029989392
 136    0.0068127896891446
 137    0.0090417794873452
 138    -0.018087676358319
 139      0.01097783943397
 140     0.015664867918657
 141    -0.027075389999369
 142     0.027767736866293
 143     0.032414767235546
 144    -0.0013949901438643
 145    -0.0026496269140511
 146    -0.0011742563489757
 147    0.0023636784079059
 148    -0.0015648306118134
 149    0.00071214793408882
 150    -0.0045207371467861
 151    0.0019369917712718
 152     0.031227398455791
 153    0.0052091083237395
 154    -0.0020470117113437
 155    -0.00067022790759803
 156    0.0094555261100378
 157    -0.002687303859575
 158    -0.0017928324809272
 159     0.019370843235718
 160    -0.015001552654033
 161     0.006115975152921
 162    0.0019073610736444
 163    0.0011661298522211
 164    -0.0019350253635711
 165    -0.0020215124852785
 166    0.00022469564560622
 167    -1.5223088536421e-05
 168    0.00020171457718515
 169    -0.0047026276346301
 170     0.016836730106149
 171    -0.00087785296649529
 172    -0.00069025635106755
 173    -0.0049395429981056
 174    -0.00099733065030044
 175    -0.0020013833923553
 176    -0.0082160229341233
 177    -0.0036346038496843
 178    0.0075590786611719
 179    -0.016219613723488
 180    -0.00057492521945553
 181    0.0011906741221915
 182    0.00078485273634892
 183    -0.0009416021213199
 184    -0.00068290545586054
 Sym= B
 Ene=               2
 Spin= Alpha
 Occup=    1.00000
   1    0.0078668816496452
   2    -0.022401404913594
   3       0.1103697736896
   4     -0.11391019363044
   5     0.012304901189736
   6     0.023997048819144
   7    0.0026098655023418
   8    0.0087920980234291
   9    -0.081293058077053
  10    -0.0084852024631596
  11    -0.029419803917837
  12      0.07589005271397
  13     0.019732841925263
  14     0.013715498075207
  15     0.054815470873037
  16     -0.10129380701309
  17    -0.0085361217182218
  18     -0.12676583531456
  19     -0.02166983898546
  20     0.025249168537836
  21    -0.047289673130383
  22    -0.0041337385036612
  23    -0.059057487777247
  24    -0.014079424398159
  25    -0.0027358575229987
  26    -0.0014547829988599
  27    -0.00043810058945658
  28    0.0040066208435918
  29    0.0004702282320974
  30    0.0042404843904947
  31    0.00064095117894553
  32    -9.6545079467804e-19
  33    -1.3838752532178e-18
  34    -5.7938946616373e-19
  35     -0.52233352252624
  36      0.10184400355629
  37    -5.358579628082e-17
  38     -0.43346999065876
  39     0.088311666410867
  40    -4.6427138516079e-17
  41    -1.079821550771e-18
  42    -0.014026104951252
  43    0.0019957040485413
  44    -1.2222589315542e-19
  45    -3.4412905763033e-19
  46    -0.0078668816496452
  47     0.022401404913594
  48      -0.1103697736896
  49      0.11391019363044
  50    -0.012304901189736
  51     0.023997048819144
  52    0.0026098655023418
  53    -0.0087920980234291
  54    -0.081293058077053
  55    -0.0084852024631596
  56     0.029419803917837
  57      0.07589005271397
  58     0.019732841925263
  59    -0.013715498075207
  60    -0.054815470873037
  61     -0.10129380701309
  62    -0.0085361217182219
  63      0.12676583531456
  64      0.02166983898546
  65    -0.025249168537836
  66    -0.047289673130383
  67    -0.0041337385036613
  68     0.059057487777247
  69     0.014079424398159
  70    0.0027358575229987
  71    -0.0014547829988599
  72    -0.00043810058945658
  73    -0.0040066208435918
  74    -0.0004702282320974
  75    0.0042404843904947
  76    0.00064095117894553
  77    0.0010494990249109
  78    -0.0067672053395688
  79    0.0081887274591772
  80     0.017026015931418
  81    -0.0035770271782428
  82    0.0030824557359746
  83    -0.008003422975971
  84    -0.0059434586338383
  85    0.0051144596489616
  86    -0.013312090222878
  87    -0.013675887607905
  88    0.0099025852295737
  89    -0.026783637730144
  90    -0.00016840597245961
  91    -0.00071550268487892
  92    0.00036861528956346
  93    -0.00044173212046622
  94    -0.00018482352450406
  95     0.001515452863753
  96    -0.0099707409047284
  97     0.017920989943759
  98    0.0051754730139437
  99    -0.011853429877772
 100    0.0030534733651749
 101    0.0046988925471602
 102    -0.020964189538395
 103    0.0059322960476995
 104    0.0083942620687641
 105     -0.03181932399513
 106    0.0038633856389703
 107    0.0095940666064044
 108    0.0011553044471906
 109    0.00046926478830747
 110    -0.00049722606343082
 111    -0.0021017804397439
 112    0.00094130511882036
 113    0.0010210152921922
 114    -0.0066487059347272
 115     0.011147017791948
 116    0.0037039615545363
 117    -0.0056367041744881
 118    -0.0072820122429824
 119    0.00072402319107587
 120    -0.0091282849875506
 121    -0.013156906057091
 122    0.0013110686224661
 123    -0.019222632577505
 124    -0.014733126707994
 125    0.00033707968736797
 126    0.0010623970117381
 127    -0.00048310052897559
 128    0.00028984733467011
 129    0.00016809532717815
 130    -0.0015484236300914
 131    -0.0010494990249109
 132    0.0067672053395688
 133    -0.0081887274591772
 134    -0.017026015931418
 135    -0.0035770271782428
 136    0.0030824557359746
 137     0.008003422975971
 138    -0.0059434586338383
 139    0.0051144596489616
 140     0.013312090222878
 141    -0.013675887607905
 142    0.0099025852295737
 143     0.026783637730144
 144    0.00016840597245961
 145    -0.00071550268487892
 146    0.00036861528956346
 147    0.00044173212046622
 148    0.00018482352450406
 149    -0.001515452863753
 150    0.0099707409047284
 151    -0.017920989943759
 152    -0.0051754730139437
 153    -0.011853429877772
 154    0.0030534733651749
 155    -0.0046988925471602
 156    -0.020964189538395
 157    0.0059322960476995
 158    -0.0083942620687641
 159     -0.03181932399513
 160    0.0038633856389703
 161    -0.0095940666064044
 162    -0.0011553044471906
 163    0.00046926478830747
 164    -0.00049722606343082
 165    0.0021017804397439
 166    -0.00094130511882036
 167    -0.0010210152921922
 168    0.0066487059347272
 169    -0.011147017791948
 170    -0.0037039615545363
 171    -0.0056367041744881
 172    -0.0072820122429824
 173    -0.00072402319107588
 174    -0.0091282849875506
 175    -0.013156906057091
 176    -0.0013110686224661
 177    -0.019222632577505
 178    -0.014733126707994
 179    -0.00033707968736798
 180    -0.0010623970117381
 181    -0.00048310052897559
 182    0.00028984733467011
 183    -0.00016809532717815
 184    0.0015484236300914
