[Molden Format]
made by pyscf v[2.1.1]
[Atoms] (AU)
Fe   1   26     3.17068844873907     0.00098706064664     0.12237737881307
O   2   8     0.00000000000000     0.00000000000000    -0.89004350580623
Fe   3   26    -3.17068844873907    -0.00098706064664     0.12237737881307
Cl   4   17     3.53383895113107    -2.07485195383062     3.76228752659000
Cl   5   17     5.54152580550813    -1.85590924879884    -2.78672786652360
Cl   6   17     4.48169216485503     3.92976278472880    -0.95330240907949
Cl   7   17    -3.53383895113107     2.07485195383062     3.76228752659000
Cl   8   17    -5.54152580550813     1.85590924879884    -2.78672786652360
Cl   9   17    -4.48169216485503    -3.92976278472880    -0.95330240907949
[GTO]
1 0
 s    6 1.00
          60923.640643  0.0017552243692958
          9147.8893982   0.013449023284001
          2081.3505927   0.066678874640978
          587.55977067    0.23176348548844
           191.0904399    0.46945550248188
          65.732730112     0.3596824938678
 s    3 1.00
          127.25891928   -0.10723431835929
           14.83091301    0.62971616328466
          6.0653307408    0.44472317896179
 s    3 1.00
           10.44994371   -0.21694289195548
          1.7245228003    0.69457867408393
         0.71772177325    0.43298308896347
 s    1 1.00
        0.091449828308                   1
 s    1 1.00
        0.033706691021                   1
 p    5 1.00
          773.43750995  0.0091440529992506
          182.15149714   0.067887577136571
          57.547272758    0.26167978878504
          20.614988935    0.51088040113251
           7.634855789    0.33235475570224
 p    3 1.00
           3.871932799    0.33193859098144
          1.4924724132     0.5553666555499
         0.56061284958    0.23106034201617
 p    1 1.00
              0.134915                   1
 d    4 1.00
          38.968133419   0.033335938558743
          10.800067078    0.17766212505983
          3.6136457999      0.441281781625
          1.2129967888    0.57089200490673
 d    1 1.00
          0.3652439317                   1
 f    1 1.00
                 1.598                   1

2 0
 s    5 1.00
          2266.1767785  -0.0053893503921743
          340.87010191   -0.04023472138896
          77.363135167   -0.18008184205526
           21.47964494   -0.46828857657651
          6.6589433124   -0.44692617160187
 s    1 1.00
         0.80975975668                   1
 s    1 1.00
         0.25530772234                   1
 p    3 1.00
          17.721504317   0.062630248763161
           3.863550544    0.33331138482352
          1.0480920883    0.74148638308122
 p    1 1.00
         0.27641544411                   1
 d    1 1.00
                   1.2                   1

3 0
 s    6 1.00
          60923.640643  0.0017552243692958
          9147.8893982   0.013449023284001
          2081.3505927   0.066678874640978
          587.55977067    0.23176348548844
           191.0904399    0.46945550248188
          65.732730112     0.3596824938678
 s    3 1.00
          127.25891928   -0.10723431835929
           14.83091301    0.62971616328466
          6.0653307408    0.44472317896179
 s    3 1.00
           10.44994371   -0.21694289195548
          1.7245228003    0.69457867408393
         0.71772177325    0.43298308896347
 s    1 1.00
        0.091449828308                   1
 s    1 1.00
        0.033706691021                   1
 p    5 1.00
          773.43750995  0.0091440529992506
          182.15149714   0.067887577136571
          57.547272758    0.26167978878504
          20.614988935    0.51088040113251
           7.634855789    0.33235475570224
 p    3 1.00
           3.871932799    0.33193859098144
          1.4924724132     0.5553666555499
         0.56061284958    0.23106034201617
 p    1 1.00
              0.134915                   1
 d    4 1.00
          38.968133419   0.033335938558743
          10.800067078    0.17766212505983
          3.6136457999      0.441281781625
          1.2129967888    0.57089200490673
 d    1 1.00
          0.3652439317                   1
 f    1 1.00
                 1.598                   1

4 0
 s    5 1.00
          10449.827566  0.0054265953789407
          1571.7365221   0.040626378128836
          357.12065523    0.18359747852877
          100.25185935    0.47438948768198
          30.812727554    0.43735181104122
 s    3 1.00
          51.923789434  -0.092754154848099
          5.7045760975    0.56380825544207
          2.3508376809    0.50367044629712
 s    1 1.00
         0.44605124672                   1
 s    1 1.00
          0.1684885619                   1
 p    5 1.00
          307.66790569  -0.0088797025588865
          72.102015515  -0.064284071721237
          22.532680262   -0.24288739736006
          7.8991765444   -0.48340836369878
          2.8767268321   -0.38952563875509
 p    1 1.00
         0.77459363955                   1
 p    1 1.00
         0.21037699698                   1
 d    1 1.00
                  0.65                   1

5 0
 s    5 1.00
          10449.827566  0.0054265953789407
          1571.7365221   0.040626378128836
          357.12065523    0.18359747852877
          100.25185935    0.47438948768198
          30.812727554    0.43735181104122
 s    3 1.00
          51.923789434  -0.092754154848099
          5.7045760975    0.56380825544207
          2.3508376809    0.50367044629712
 s    1 1.00
         0.44605124672                   1
 s    1 1.00
          0.1684885619                   1
 p    5 1.00
          307.66790569  -0.0088797025588865
          72.102015515  -0.064284071721237
          22.532680262   -0.24288739736006
          7.8991765444   -0.48340836369878
          2.8767268321   -0.38952563875509
 p    1 1.00
         0.77459363955                   1
 p    1 1.00
         0.21037699698                   1
 d    1 1.00
                  0.65                   1

6 0
 s    5 1.00
          10449.827566  0.0054265953789407
          1571.7365221   0.040626378128836
          357.12065523    0.18359747852877
          100.25185935    0.47438948768198
          30.812727554    0.43735181104122
 s    3 1.00
          51.923789434  -0.092754154848099
          5.7045760975    0.56380825544207
          2.3508376809    0.50367044629712
 s    1 1.00
         0.44605124672                   1
 s    1 1.00
          0.1684885619                   1
 p    5 1.00
          307.66790569  -0.0088797025588865
          72.102015515  -0.064284071721237
          22.532680262   -0.24288739736006
          7.8991765444   -0.48340836369878
          2.8767268321   -0.38952563875509
 p    1 1.00
         0.77459363955                   1
 p    1 1.00
         0.21037699698                   1
 d    1 1.00
                  0.65                   1

7 0
 s    5 1.00
          10449.827566  0.0054265953789407
          1571.7365221   0.040626378128836
          357.12065523    0.18359747852877
          100.25185935    0.47438948768198
          30.812727554    0.43735181104122
 s    3 1.00
          51.923789434  -0.092754154848099
          5.7045760975    0.56380825544207
          2.3508376809    0.50367044629712
 s    1 1.00
         0.44605124672                   1
 s    1 1.00
          0.1684885619                   1
 p    5 1.00
          307.66790569  -0.0088797025588865
          72.102015515  -0.064284071721237
          22.532680262   -0.24288739736006
          7.8991765444   -0.48340836369878
          2.8767268321   -0.38952563875509
 p    1 1.00
         0.77459363955                   1
 p    1 1.00
         0.21037699698                   1
 d    1 1.00
                  0.65                   1

8 0
 s    5 1.00
          10449.827566  0.0054265953789407
          1571.7365221   0.040626378128836
          357.12065523    0.18359747852877
          100.25185935    0.47438948768198
          30.812727554    0.43735181104122
 s    3 1.00
          51.923789434  -0.092754154848099
          5.7045760975    0.56380825544207
          2.3508376809    0.50367044629712
 s    1 1.00
         0.44605124672                   1
 s    1 1.00
          0.1684885619                   1
 p    5 1.00
          307.66790569  -0.0088797025588865
          72.102015515  -0.064284071721237
          22.532680262   -0.24288739736006
          7.8991765444   -0.48340836369878
          2.8767268321   -0.38952563875509
 p    1 1.00
         0.77459363955                   1
 p    1 1.00
         0.21037699698                   1
 d    1 1.00
                  0.65                   1

9 0
 s    5 1.00
          10449.827566  0.0054265953789407
          1571.7365221   0.040626378128836
          357.12065523    0.18359747852877
          100.25185935    0.47438948768198
          30.812727554    0.43735181104122
 s    3 1.00
          51.923789434  -0.092754154848099
          5.7045760975    0.56380825544207
          2.3508376809    0.50367044629712
 s    1 1.00
         0.44605124672                   1
 s    1 1.00
          0.1684885619                   1
 p    5 1.00
          307.66790569  -0.0088797025588865
          72.102015515  -0.064284071721237
          22.532680262   -0.24288739736006
          7.8991765444   -0.48340836369878
          2.8767268321   -0.38952563875509
 p    1 1.00
         0.77459363955                   1
 p    1 1.00
         0.21037699698                   1
 d    1 1.00
                  0.65                   1

[5d]
[7f]
[9g]

[MO]
 Sym= A
 Ene=               0
 Spin= Alpha
 Occup=    1.00000
   1    0.0010904212147143
   2    -0.0032411830850009
   3     0.014516052390543
   4    -0.027648274137415
   5     0.012833356226566
   6    0.00035352439814311
   7    0.0024095808425553
   8    -0.0041815311642239
   9    -0.001139909384597
  10    -0.007528675911167
  11      0.01300714072224
  12    0.0015977385956083
  13    0.0099295973133517
  14     -0.01896887169367
  15      0.27069259110123
  16     -0.46418125277289
  17     -0.39990338344521
  18      0.44289519953397
  19      0.35345868495551
  20     0.072803175083315
  21     -0.12443142622241
  22     -0.10846845720553
  23      0.12004780578917
  24     0.094680835851185
  25    0.0011627976561248
  26    -0.00089164091812498
  27    -0.00087547838061972
  28    -0.00021463225833826
  29    -2.3621084543708e-05
  30    0.00087076806729887
  31    0.0008155358122004
  32      0.00187478744898
  33    0.0049137184456665
  34    0.0030143821472411
  35    0.0090312118941976
  36     0.026466132401809
  37    -0.044109742822295
  38    0.0099214533117556
  39     0.025641481936359
  40    -0.042799026877854
  41    -0.0001051126662052
  42    0.0010602859869539
  43    -9.1086110301099e-06
  44    -8.8181632369466e-05
  45    -0.00046742217049955
  46    0.00048764250847564
  47    -0.0014557687964141
  48    0.0064953994008218
  49    -0.006707667609904
  50    0.0009677046324899
  51    -0.0022577138988515
  52    0.00087831277406702
  53    -0.00073936287182791
  54    0.0072110855093935
  55    -0.002795547656094
  56    0.0023609318210868
  57    -0.0063711035163395
  58    0.0053191840731968
  59    -0.0076746301107252
  60    0.0010899730226777
  61    -0.0009039556786762
  62    -6.756721125179e-06
  63    -0.0016156354892138
  64    0.00094432028712052
  65    0.0012448847028808
  66    -0.0021098166176124
  67    -0.00034355829462983
  68    -0.0007259624679004
  69    0.0016511262442493
  70    3.9748864203996e-05
  71    0.00035022763350229
  72    -2.964630247783e-06
  73    -6.387083998563e-05
  74    -0.00011750587525493
  75    -0.00025779398571625
  76    0.00022644429333759
  77    -0.0012771862188164
  78    0.0083753599038811
  79    -0.010667340547761
  80    -0.0058476685747446
  81     0.018745504053593
  82    -0.010912504559157
  83    0.0072357631461616
  84     0.031773777065934
  85    -0.018703822074478
  86     0.012720904992696
  87     0.052450121595219
  88    -0.030414604993401
  89     0.019760070504822
  90    -0.00085593683375497
  91    0.0020625381887064
  92    -0.00064682055155099
  93    0.0006395943177132
  94    -0.0012754152638599
  95    -4.910813182318e-05
  96    0.00030905961614654
  97    0.00085194832390689
  98    -0.0043948021069292
  99    -0.0087741604790663
 100    -0.027039080289216
 101    0.0094400508437978
 102    -0.014775616610172
 103    -0.045571449923979
 104     0.015743258424949
 105    -0.023628759129849
 106    -0.077748767694511
 107     0.026424396317855
 108    -0.0010669498496456
 109     0.001334190987792
 110    0.0016178750977506
 111    -0.0018842543336922
 112    -0.0014196012948688
 113    0.00031917190113619
 114    -0.0021075369692892
 115    0.0041291560183331
 116    -0.0025243007899142
 117     -0.01529907983468
 118     0.006703602573595
 119     0.020149963721336
 120    -0.025669261367479
 121     0.011252658271558
 122     0.033820990295056
 123    -0.042809486162442
 124     0.020198510895545
 125     0.056951139012881
 126    -0.00082572012603641
 127    0.0012785486791279
 128     0.001356714546248
 129    -0.0017378513151118
 130    -0.00096774197032415
 131    0.00018445293484578
 132    -0.0012498867078732
 133    0.0024335353761775
 134    0.00085838898232955
 135    0.0011854390765736
 136    -0.00086800762594895
 137    -0.00051496173706006
 138     0.002217022807822
 139    -0.0014876139280799
 140    -0.00091441113505141
 141    0.0028057156461674
 142    -0.0032226997601938
 143    -0.0019897397575983
 144    9.7564494604226e-05
 145    0.00024240033838075
 146    -6.2186383380292e-05
 147    -0.00013262139538756
 148    0.00024190421337753
 149    -8.7817178237884e-05
 150    0.00057942631643021
 151    -0.00050770470969428
 152    -0.0033068029302992
 153    -0.001164293375824
 154    -0.00016310979509169
 155    0.0006051437716155
 156    -0.0020302947715319
 157    -0.00031580142223452
 158    0.0011145514504776
 159    -0.003912150885359
 160    0.00044154653327668
 161    0.00010395172898511
 162    -6.655715081644e-05
 163    -0.0001319414514891
 164    5.4776171194712e-05
 165    0.00010559307775926
 166    4.2707649530434e-05
 167    0.00015002667623345
 168    -0.0010090251392068
 169    0.0019088364730265
 170    0.00048524045992591
 171     0.001259410619475
 172    0.00057629468770089
 173    0.00068228885380376
 174    0.0022747705500318
 175    0.0010318903394283
 176    0.0011024858291132
 177    0.0033187365458234
 178    0.0017552687537744
 179    0.0025606196986533
 180    0.00013480460743356
 181    -0.00010397942318551
 182    1.8259847425656e-05
 183    -0.00019133947293148
 184    -0.00022999222192616
 Sym= A
 Ene=               1
 Spin= Alpha
 Occup=    1.00000
   1    -0.00097527308488576
   2    0.0028996039631094
   3    -0.012974935947465
   4     0.025121071830059
   5    -0.0097147282949264
   6    0.00016986629291718
   7    0.0062564077945724
   8    0.0038806953172851
   9    -0.00054525790122209
  10    -0.019225916279233
  11    -0.011878249041604
  12    0.0014297691566512
  13     0.027044840109576
  14     0.018484531826346
  15      0.49658649274625
  16      0.23836559899379
  17      0.52067991252259
  18     0.070678954439276
  19      0.43432273244975
  20      0.13331834098283
  21     0.063052526941478
  22      0.14004176931377
  23     0.018471089533511
  24      0.11510095270315
  25    0.00040885001399603
  26    0.0015337771835073
  27    0.00067900827586464
  28    0.00076818070472887
  29    0.0017163878797721
  30    -3.6014133947387e-05
  31    0.0013914687508264
  32    -0.0028580724366932
  33    -0.0073384652453157
  34    -0.0041647476174466
  35    -0.012278931557808
  36     0.071969833771325
  37     0.050860976776363
  38    -0.013652761817117
  39     0.069270816919973
  40     0.049547840108821
  41    0.00065236228606296
  42    -0.0014603188926068
  43    0.0011355681567048
  44    0.00055636234373945
  45    -0.0016181709709499
  46    -0.00063333009834413
  47    0.0018766212430095
  48    -0.008496472593769
  49    0.0099958854094195
  50    -0.0021455128578261
  51    0.0027006142430787
  52    0.0020884366962308
  53    0.00061359414747061
  54    -0.0086274999416519
  55    -0.0066500294780576
  56    -0.001966139266926
  57    0.0070216575539166
  58       0.0134369327784
  59    0.0084035909442255
  60    -0.0015834687620626
  61    0.00042787002061367
  62    -0.00051522769708066
  63    0.0016194860187892
  64    0.0020350272362497
  65    -0.001480165781299
  66    0.0024190920434415
  67    -0.0011800987230961
  68    0.00063317906491519
  69    0.0047352483722435
  70    -2.1188966560019e-05
  71    -0.00040208911410349
  72    -0.00014668898427295
  73    0.00011402086078699
  74    -0.00033173470450212
  75    0.00032749329984568
  76    0.00062813594256171
  77    0.00020746634534056
  78    -0.0013545072881574
  79    0.0011685793497479
  80         0.00143217661
  81    3.5898174290174e-05
  82    -0.021916961174864
  83    -0.014599686964994
  84    1.8242710364357e-05
  85    -0.036925409917947
  86    -0.024797106888435
  87    0.00022255143310401
  88    -0.062893657815344
  89    -0.041574792822011
  90    -0.0025043744953361
  91    8.1634738221617e-05
  92    -0.0012414719254359
  93    -0.0015331754211637
  94    9.9892451200513e-05
  95    -0.00036410665110339
  96    0.0024417977662966
  97    -0.0050088074926756
  98    0.0047284719986935
  99     0.017306088218005
 100    -0.005801433430925
 101     0.013086726449314
 102     0.029349881305349
 103    -0.0097091574554573
 104     0.022015147173433
 105     0.046594275822728
 106    -0.016552640397308
 107     0.038259309018874
 108    -0.0022552255177209
 109    -0.00022232344891117
 110    -0.00021275798739201
 111    0.0011458407120361
 112    -0.0010801624342225
 113    0.0010918757179605
 114    -0.0071473750971651
 115    0.0091623006904937
 116    0.0040773914283797
 117    -0.013790685806132
 118    -0.010470445521623
 119    -0.010540597955694
 120    -0.023294636432022
 121    -0.017918018423811
 122    -0.017662185937017
 123     -0.03844182958781
 124    -0.029223124130561
 125    -0.030476890739319
 126    0.0010678517253696
 127    3.7414250873295e-05
 128    -0.0013577954396703
 129    -0.00056159188885533
 130    -0.0010212657506699
 131    -0.00032878348463813
 132    0.0021797564101337
 133    -0.0030199625722849
 134    -0.0056611537882288
 135    -0.0026441358895586
 136    0.00012424935927945
 137    0.0020731629447778
 138    -0.004669663267364
 139    0.00015805861922764
 140    0.0035154466913201
 141    -0.0070971272588557
 142     0.001801604683785
 143    0.0085952259188647
 144    -5.0330293916124e-05
 145    -0.00059822194431587
 146    -5.0755243986389e-05
 147    0.00032114215550566
 148    -0.00013720572439274
 149    -8.9289324637085e-05
 150    0.0006004873141309
 151    -0.001258211487186
 152    0.00047088146108492
 153    -0.00073460072765947
 154    -0.00042050875241953
 155    -0.0009188076785056
 156    -0.0013263044407745
 157    -0.00057372224705433
 158    -0.0015056149675061
 159    -0.0018977392675166
 160    -0.0024247655483255
 161    -0.0029075582343143
 162    -0.00017243611587632
 163    0.00015737855931599
 164    -3.2773036753212e-05
 165    0.00011399100809883
 166    1.0150159511082e-05
 167    0.00024101761214676
 168    -0.0016027232975171
 169    0.0022618274771294
 170    0.0044110213809516
 171    0.0027861031221701
 172    0.00069349275016776
 173    -0.00096393766001074
 174    0.0050092933204524
 175    0.0011366284902389
 176    -0.0017191796749084
 177    0.0071092091592352
 178    0.0042870009805775
 179    -0.0018573964954556
 180    9.7696742164929e-05
 181    0.00023970307769928
 182    0.00018828762497425
 183    -0.0005049665841352
 184    -0.00015938363709392
 Sym= A
 Ene=               2
 Spin= Alpha
 Occup=    1.00000
   1    0.00062521206811969
   2    -0.0018618760709463
   3    0.0083171064507832
   4    -0.010865261853107
   5    -0.0014044828662389
   6    0.0020765640940576
   7    0.0045010060921415
   8    -0.0043313053526557
   9    -0.0064352271625988
  10    -0.014227134253535
  11     0.013762503176396
  12    0.0056231853009799
  13    0.0072285385367183
  14    -0.0063245232161805
  15       0.5545618918511
  16      0.35173257854163
  17     -0.31408524025451
  18      0.11805763521754
  19     -0.46978583342444
  20      0.14522017899483
  21     0.090450200368278
  22    -0.082171209955637
  23     0.032360114150591
  24     -0.12090913167364
  25    0.00022368154674562
  26    0.0017869629586056
  27    4.4264207775554e-05
  28    0.0015494739994517
  29    -0.0013904529552688
  30    -0.00022560972632937
  31    -0.0019114588262547
  32    -0.0045999386554643
  33    -0.011337198898613
  34    -0.0085744927839854
  35    -0.022978390981871
  36    -0.082235533994009
  37     0.070868999500393
  38    -0.025764404886384
  39    -0.080348752188125
  40     0.068981518822153
  41    0.00072546682804567
  42    -0.0020292604405297
  43    -0.0011690888889116
  44    0.0010740129576443
  45    0.0018742111536104
  46    -0.00094985478504136
  47    0.0028121605330796
  48     -0.01275982917462
  49      0.01381629241937
  50    -0.0047358588290191
  51    0.0041781457466577
  52    -0.0025985239758762
  53    0.0010456350212207
  54    -0.013399481631572
  55    0.0082717464948875
  56    -0.0033534803964967
  57     0.012718283908337
  58    -0.015881327914205
  59     0.013393138433605
  60    -0.0017782651216395
  61    -3.3973912312699e-05
  62    0.00033580102231402
  63    0.0032405697573902
  64    -0.002281830908888
  65    -0.0021086156114231
  66    0.0032744986353536
  67    0.0015809696902787
  68    0.0019672022516498
  69    -0.0053300273632245
  70    -2.1249237504016e-05
  71    -0.0005886173502086
  72    6.7995178252966e-05
  73    1.7296959625748e-05
  74    0.00038069460589445
  75    0.00047480534025171
  76    -0.00071619635198461
  77    -0.003705817440997
  78     0.024287031351267
  79    -0.030298066515981
  80    -0.030595410318084
  81    -0.0099453705828864
  82    -0.027668759011884
  83     0.030225339986586
  84    -0.016572172518377
  85    -0.047095020462039
  86     0.051855626487699
  87    -0.028237676758169
  88    -0.082637038707222
  89     0.092641988427708
  90    -0.001178276972676
  91    -0.0017361827136468
  92    5.5227624383202e-05
  93    4.2203890909893e-05
  94    0.00036230306034721
  95    0.00042344038581662
  96    -0.0027441964121762
  97    0.0029251865077647
  98    0.0052322987327924
  99    -0.00065292751402855
 100    -0.005853210844044
 101     0.010728217231018
 102    -0.0011392903440191
 103    -0.010100589940816
 104     0.018279591939976
 105    -0.0025565379530606
 106    -0.015270708605199
 107       0.0304875308732
 108    -0.00081772370198657
 109    0.00048070662611683
 110    0.00035896979934179
 111    -0.00044269660178806
 112    -0.0015543154224752
 113    0.0029008084631135
 114    -0.018888141845991
 115     0.022758040658759
 116     0.025984500504691
 117    0.00061287424334728
 118    -0.029118610464255
 119     0.022402914800584
 120    0.00076857406995427
 121    -0.049127905444863
 122       0.0374666616974
 123    0.00037584486857311
 124    -0.088145967966642
 125     0.065577689355776
 126    -0.00073505828849359
 127    0.00026766356987272
 128    0.00018508463212897
 129    -0.0011352228035696
 130    0.0019241883279814
 131    -0.00015632636254722
 132     0.001046438761768
 133    -0.0016065613091642
 134    -0.002147339752374
 135    -0.00034620604521267
 136    0.0015276883129397
 137    0.00041679250130399
 138    -0.00058553309320833
 139      0.00241778930915
 140    0.00077079404432234
 141    -0.0018264175228238
 142    0.0063955783865119
 143    0.0016738876108604
 144    -4.3401942698297e-05
 145    -0.00028400326360998
 146    0.0001278840235117
 147    4.2363629161476e-05
 148    -0.00030282584482764
 149    0.00018639579158495
 150    -0.0012243208205099
 151    0.00098336322535372
 152    0.0071960770623975
 153    0.0025773048217803
 154    0.00053915895553635
 155    -0.00086032012491236
 156    0.0045082386560917
 157    0.00098128088227653
 158    -0.0016859500612887
 159    0.0083893431272551
 160    -0.00010636243673439
 161    0.0011717922745988
 162    0.00016411894204743
 163    0.00027683512087028
 164    -0.0001301696165006
 165    -0.00019836160069376
 166    -0.00015455196934827
 167    -0.00040093606583584
 168    0.0026861548627592
 169    -0.0046712021125624
 170    -0.0030015156048304
 171    -0.0033546362857044
 172    -0.0015228515193048
 173    -0.00095768239359052
 174    -0.005943916561444
 175    -0.0027117994909633
 176    -0.0014374672845127
 177    -0.0095650955141435
 178    -0.005348496301926
 179    -0.0045326706977445
 180    -0.00038035015817426
 181    0.00010009710075781
 182    -0.00011262328084221
 183    0.00051936344995725
 184    0.00063039105412227
 Sym= A
 Ene=               3
 Spin= Alpha
 Occup=    1.00000
   1    0.0006936002197519
   2    -0.0020998570847078
   3    0.0090661632705109
   4    -0.0096315248867696
   5    -0.0068272114265671
   6    0.0085988858916757
   7    -0.0079423307518236
   8    -0.0069220113622273
   9     -0.02674701027187
  10     0.024837743802819
  11     0.021794891565657
  12     0.025382811463345
  13     -0.02660471159128
  14     -0.02435663410473
  15      -0.1481894113246
  16      0.51397095662777
  17     -0.46318370239033
  18       -0.169402981343
  19      0.47495674328761
  20    -0.041740060009696
  21      0.13312468558707
  22     -0.12215103407482
  23    -0.041266866396072
  24      0.12126467944326
  25    -0.0012620203965577
  26    0.0014768464090955
  27    -0.0010936761338848
  28    0.0010261523088947
  29    0.0011391843819063
  30    5.4749714865784e-05
  31    0.0012873203565238
  32    -0.0079942725504649
  33    -0.017696832710508
  34    -0.019370732491436
  35    -0.039115131646543
  36     0.056772336198828
  37      0.05388261860501
  38    -0.044810609260474
  39     0.056530022777592
  40     0.051793583730728
  41    -5.0285504175514e-05
  42    -0.0016593863803195
  43    0.0003991714082413
  44    0.00098245402536252
  45    -0.001103172963053
  46    -0.0011754947644098
  47     0.003448395186314
  48    -0.015936073356618
  49     0.016597993688721
  50    0.0018231841401384
  51    0.0046103580821082
  52    0.0017674613345575
  53    0.00014437293521973
  54    -0.014872742720991
  55    -0.0056499559166852
  56    -0.00049487415294973
  57     0.014452664253745
  58     0.012219463696082
  59     0.010498358400595
  60    -0.0022890782281366
  61    -0.0015002707090523
  62    -0.0003814171816442
  63    0.0039785912472193
  64    0.0017528242396991
  65    -0.0017504821142803
  66    0.0018770481830913
  67    -0.00049319243699696
  68    0.0016250478165878
  69    0.0034797099805277
  70    0.00010525238747446
  71    -0.00042810035595836
  72    -0.00012824922996203
  73    -9.1004457287705e-05
  74    -0.00026134667829857
  75    0.0004714529487193
  76    0.00046395259293278
  77    -0.0018815217290569
  78     0.012409154427715
  79    -0.017379112388253
  80    -0.010248661081831
  81    -0.0067782261349457
  82    0.0045966641156606
  83     0.025326415642035
  84    -0.011437175110389
  85    0.0076299331377856
  86     0.043691978400747
  87    -0.019648013886722
  88     0.011961493886032
  89     0.073166658374329
  90    0.0016995357540787
  91    -0.00045303348743941
  92    0.0011473363621673
  93    0.0010043931071788
  94     0.001355718827324
  95    0.0057564224834662
  96    -0.037775337129872
  97     0.050256610228299
  98     0.038231002354965
  99    -0.032667120489657
 100      0.02808350620622
 101     0.041937449371013
 102    -0.056188356493169
 103     0.048298135278986
 104     0.071729250957986
 105    -0.095121937521614
 106     0.081774450877621
 107      0.12304722095495
 108    0.0012619602233598
 109    -0.0015115941496298
 110    0.00091006174998254
 111    0.00081098731135174
 112    -0.00045745317448085
 113    -0.0032963019930922
 114     0.021616312701729
 115    -0.029208535319038
 116    -0.020232263389244
 117    0.0029829078280711
 118     0.036032627503723
 119    -0.00066035278680351
 120    0.0054222692308832
 121     0.061313230947926
 122    -0.00099361905816466
 123    0.0080454131142384
 124      0.10620988432579
 125    -0.0029411989084934
 126    -0.00036888233585989
 127    0.0010899175215475
 128    0.0020704171898228
 129    -0.00011708296395421
 130    -0.0011393005566032
 131    -0.00028692753292795
 132    0.0018905025114657
 133    -0.0017721357828774
 134    -0.008717319502677
 135    -0.00058086833403565
 136    0.00038744266018909
 137    0.0015865347011397
 138    -0.001159179869562
 139    0.00056528565599669
 140    0.0024964071847672
 141    -0.0022110553747107
 142    0.0031907183332773
 143    0.0087615442645128
 144    8.7048715466274e-05
 145    -0.00067526536042691
 146    -1.1848248340511e-05
 147    0.00019957806591918
 148    -0.00026530814110488
 149    -0.00014564743335415
 150    0.00096471399905893
 151    -0.0017792886023227
 152    0.00020880423720384
 153    -0.00094260426021441
 154    -0.00015685065520965
 155    -0.0010788671163585
 156    -0.0017346620283347
 157    -9.604019409412e-06
 158    -0.0018685023821526
 159    -0.0022160365608164
 160    -0.0024735381407631
 161    -0.0025250179031732
 162    -0.00022884616753366
 163    0.00032710862901894
 164    -0.0001029070639766
 165    0.00025119077898013
 166    -0.00014547978878203
 167    9.5955686103155e-05
 168    -0.00065553247934779
 169    0.0010111794477514
 170    0.0024263194991212
 171    0.0017215642204189
 172    -6.4770928899886e-07
 173    -0.00099807854004048
 174    0.0031707383226283
 175    -0.00017559551802263
 176    -0.0017162279456843
 177    0.0038851536803703
 178    0.0027267131194933
 179    -0.0023246393492486
 180    -6.7347633903987e-05
 181    0.00021002931169292
 182    0.00014706561590714