[Molden Format]
made by pyscf v[2.1.1]
[Atoms] (AU)
Fe   1   26     3.17068844873907     0.00098706064664     0.12237737881307
O   2   8     0.00000000000000     0.00000000000000    -0.89004350580623
Fe   3   26    -3.17068844873907    -0.00098706064664     0.12237737881307
Cl   4   17     3.53383895113107    -2.07485195383062     3.76228752659000
Cl   5   17     5.54152580550813    -1.85590924879884    -2.78672786652360
Cl   6   17     4.48169216485503     3.92976278472880    -0.95330240907949
Cl   7   17    -3.53383895113107     2.07485195383062     3.76228752659000
Cl   8   17    -5.54152580550813     1.85590924879884    -2.78672786652360
Cl   9   17    -4.48169216485503    -3.92976278472880    -0.95330240907949
[GTO]
1 0
 s    6 1.00
          60923.640643  0.0017552243692958
          9147.8893982   0.013449023284001
          2081.3505927   0.066678874640978
          587.55977067    0.23176348548844
           191.0904399    0.46945550248188
          65.732730112     0.3596824938678
 s    3 1.00
          127.25891928   -0.10723431835929
           14.83091301    0.62971616328466
          6.0653307408    0.44472317896179
 s    3 1.00
           10.44994371   -0.21694289195548
          1.7245228003    0.69457867408393
         0.71772177325    0.43298308896347
 s    1 1.00
        0.091449828308                   1
 s    1 1.00
        0.033706691021                   1
 p    5 1.00
          773.43750995  0.0091440529992506
          182.15149714   0.067887577136571
          57.547272758    0.26167978878504
          20.614988935    0.51088040113251
           7.634855789    0.33235475570224
 p    3 1.00
           3.871932799    0.33193859098144
          1.4924724132     0.5553666555499
         0.56061284958    0.23106034201617
 p    1 1.00
              0.134915                   1
 d    4 1.00
          38.968133419   0.033335938558743
          10.800067078    0.17766212505983
          3.6136457999      0.441281781625
          1.2129967888    0.57089200490673
 d    1 1.00
          0.3652439317                   1
 f    1 1.00
                 1.598                   1

2 0
 s    5 1.00
          2266.1767785  -0.0053893503921743
          340.87010191   -0.04023472138896
          77.363135167   -0.18008184205526
           21.47964494   -0.46828857657651
          6.6589433124   -0.44692617160187
 s    1 1.00
         0.80975975668                   1
 s    1 1.00
         0.25530772234                   1
 p    3 1.00
          17.721504317   0.062630248763161
           3.863550544    0.33331138482352
          1.0480920883    0.74148638308122
 p    1 1.00
         0.27641544411                   1
 d    1 1.00
                   1.2                   1

3 0
 s    6 1.00
          60923.640643  0.0017552243692958
          9147.8893982   0.013449023284001
          2081.3505927   0.066678874640978
          587.55977067    0.23176348548844
           191.0904399    0.46945550248188
          65.732730112     0.3596824938678
 s    3 1.00
          127.25891928   -0.10723431835929
           14.83091301    0.62971616328466
          6.0653307408    0.44472317896179
 s    3 1.00
           10.44994371   -0.21694289195548
          1.7245228003    0.69457867408393
         0.71772177325    0.43298308896347
 s    1 1.00
        0.091449828308                   1
 s    1 1.00
        0.033706691021                   1
 p    5 1.00
          773.43750995  0.0091440529992506
          182.15149714   0.067887577136571
          57.547272758    0.26167978878504
          20.614988935    0.51088040113251
           7.634855789    0.33235475570224
 p    3 1.00
           3.871932799    0.33193859098144
          1.4924724132     0.5553666555499
         0.56061284958    0.23106034201617
 p    1 1.00
              0.134915                   1
 d    4 1.00
          38.968133419   0.033335938558743
          10.800067078    0.17766212505983
          3.6136457999      0.441281781625
          1.2129967888    0.57089200490673
 d    1 1.00
          0.3652439317                   1
 f    1 1.00
                 1.598                   1

4 0
 s    5 1.00
          10449.827566  0.0054265953789407
          1571.7365221   0.040626378128836
          357.12065523    0.18359747852877
          100.25185935    0.47438948768198
          30.812727554    0.43735181104122
 s    3 1.00
          51.923789434  -0.092754154848099
          5.7045760975    0.56380825544207
          2.3508376809    0.50367044629712
 s    1 1.00
         0.44605124672                   1
 s    1 1.00
          0.1684885619                   1
 p    5 1.00
          307.66790569  -0.0088797025588865
          72.102015515  -0.064284071721237
          22.532680262   -0.24288739736006
          7.8991765444   -0.48340836369878
          2.8767268321   -0.38952563875509
 p    1 1.00
         0.77459363955                   1
 p    1 1.00
         0.21037699698                   1
 d    1 1.00
                  0.65                   1

5 0
 s    5 1.00
          10449.827566  0.0054265953789407
          1571.7365221   0.040626378128836
          357.12065523    0.18359747852877
          100.25185935    0.47438948768198
          30.812727554    0.43735181104122
 s    3 1.00
          51.923789434  -0.092754154848099
          5.7045760975    0.56380825544207
          2.3508376809    0.50367044629712
 s    1 1.00
         0.44605124672                   1
 s    1 1.00
          0.1684885619                   1
 p    5 1.00
          307.66790569  -0.0088797025588865
          72.102015515  -0.064284071721237
          22.532680262   -0.24288739736006
          7.8991765444   -0.48340836369878
          2.8767268321   -0.38952563875509
 p    1 1.00
         0.77459363955                   1
 p    1 1.00
         0.21037699698                   1
 d    1 1.00
                  0.65                   1

6 0
 s    5 1.00
          10449.827566  0.0054265953789407
          1571.7365221   0.040626378128836
          357.12065523    0.18359747852877
          100.25185935    0.47438948768198
          30.812727554    0.43735181104122
 s    3 1.00
          51.923789434  -0.092754154848099
          5.7045760975    0.56380825544207
          2.3508376809    0.50367044629712
 s    1 1.00
         0.44605124672                   1
 s    1 1.00
          0.1684885619                   1
 p    5 1.00
          307.66790569  -0.0088797025588865
          72.102015515  -0.064284071721237
          22.532680262   -0.24288739736006
          7.8991765444   -0.48340836369878
          2.8767268321   -0.38952563875509
 p    1 1.00
         0.77459363955                   1
 p    1 1.00
         0.21037699698                   1
 d    1 1.00
                  0.65                   1

7 0
 s    5 1.00
          10449.827566  0.0054265953789407
          1571.7365221   0.040626378128836
          357.12065523    0.18359747852877
          100.25185935    0.47438948768198
          30.812727554    0.43735181104122
 s    3 1.00
          51.923789434  -0.092754154848099
          5.7045760975    0.56380825544207
          2.3508376809    0.50367044629712
 s    1 1.00
         0.44605124672                   1
 s    1 1.00
          0.1684885619                   1
 p    5 1.00
          307.66790569  -0.0088797025588865
          72.102015515  -0.064284071721237
          22.532680262   -0.24288739736006
          7.8991765444   -0.48340836369878
          2.8767268321   -0.38952563875509
 p    1 1.00
         0.77459363955                   1
 p    1 1.00
         0.21037699698                   1
 d    1 1.00
                  0.65                   1

8 0
 s    5 1.00
          10449.827566  0.0054265953789407
          1571.7365221   0.040626378128836
          357.12065523    0.18359747852877
          100.25185935    0.47438948768198
          30.812727554    0.43735181104122
 s    3 1.00
          51.923789434  -0.092754154848099
          5.7045760975    0.56380825544207
          2.3508376809    0.50367044629712
 s    1 1.00
         0.44605124672                   1
 s    1 1.00
          0.1684885619                   1
 p    5 1.00
          307.66790569  -0.0088797025588865
          72.102015515  -0.064284071721237
          22.532680262   -0.24288739736006
          7.8991765444   -0.48340836369878
          2.8767268321   -0.38952563875509
 p    1 1.00
         0.77459363955                   1
 p    1 1.00
         0.21037699698                   1
 d    1 1.00
                  0.65                   1

9 0
 s    5 1.00
          10449.827566  0.0054265953789407
          1571.7365221   0.040626378128836
          357.12065523    0.18359747852877
          100.25185935    0.47438948768198
          30.812727554    0.43735181104122
 s    3 1.00
          51.923789434  -0.092754154848099
          5.7045760975    0.56380825544207
          2.3508376809    0.50367044629712
 s    1 1.00
         0.44605124672                   1
 s    1 1.00
          0.1684885619                   1
 p    5 1.00
          307.66790569  -0.0088797025588865
          72.102015515  -0.064284071721237
          22.532680262   -0.24288739736006
          7.8991765444   -0.48340836369878
          2.8767268321   -0.38952563875509
 p    1 1.00
         0.77459363955                   1
 p    1 1.00
         0.21037699698                   1
 d    1 1.00
                  0.65                   1

[5d]
[7f]
[9g]

[MO]
 Sym= A
 Ene=               0
 Spin= Alpha
 Occup=    1.00000
   1    -0.00048764250847558
   2    0.0014557687964139
   3    -0.0064953994008211
   4    0.0067076676099031
   5    -0.00096770463248966
   6    -0.0022577138988513
   7    0.00087831277406726
   8    0.00073936287182784
   9    0.0072110855093928
  10    -0.0027955476560948
  11    -0.0023609318210865
  12    -0.0063711035163389
  13    0.0053191840731983
  14    0.0076746301107244
  15    -0.0010899730226776
  16    -0.00090395567867643
  17    -6.7567211253018e-06
  18    0.0016156354892136
  19    -0.00094432028712077
  20    -0.0012448847028806
  21    -0.0021098166176122
  22    -0.00034355829463003
  23    0.00072596246790036
  24    -0.0016511262442498
  25    -3.9748864203991e-05
  26    0.00035022763350225
  27    -2.9646302477986e-06
  28    6.3870839985613e-05
  29    0.00011750587525497
  30    -0.00025779398571622
  31    0.00022644429333766
  32    -0.0018747874489798
  33    -0.0049137184456659
  34    -0.003014382147241
  35     0.009031211894197
  36     0.026466132401817
  37      0.04410974282229
  38    0.0099214533117549
  39     0.025641481936367
  40     0.042799026877849
  41    0.00010511266620513
  42    0.0010602859869538
  43    -9.1086110299838e-06
  44    8.818163236942e-05
  45    0.00046742217049973
  46    -0.0010904212147141
  47    0.0032411830850006
  48    -0.014516052390541
  49     0.027648274137413
  50    -0.012833356226565
  51    0.00035352439814306
  52    0.0024095808425558
  53    0.0041815311642236
  54    -0.0011399093845969
  55    -0.0075286759111686
  56    -0.013007140722239
  57    0.0015977385956083
  58    0.0099295973133541
  59     0.018968871693668
  60     -0.27069259110127
  61     -0.46418125277286
  62     -0.39990338344516
  63     -0.44289519953397
  64     -0.35345868495556
  65    -0.072803175083328
  66      -0.1244314262224
  67     -0.10846845720551
  68     -0.12004780578917
  69    -0.094680835851197
  70    -0.0011627976561248
  71    -0.00089164091812483
  72    -0.00087547838061966
  73    0.0002146322583382
  74    2.3621084543524e-05
  75    0.00087076806729886
  76    0.00081553581220056
  77    -0.00018445293484575
  78    0.0012498867078729
  79    -0.0024335353761772
  80    -0.00085838898232897
  81    0.0011854390765733
  82    -0.00086800762594894
  83    0.00051496173705986
  84    0.0022170228078216
  85    -0.0014876139280799
  86    0.00091441113505107
  87    0.0028057156461668
  88    -0.0032226997601936
  89    0.0019897397575974
  90    -9.7564494604221e-05
  91    0.00024240033838069
  92    -6.2186383380299e-05
  93    0.00013262139538753
  94    -0.00024190421337752
  95    8.7817178237892e-05
  96    -0.00057942631643026
  97    0.0005077047096944
  98    0.0033068029302992
  99    -0.0011642933758241
 100    -0.00016310979509174
 101    -0.00060514377161542
 102    -0.002030294771532
 103    -0.0003158014222346
 104    -0.0011145514504775
 105    -0.0039121508853592
 106    0.00044154653327639
 107    -0.00010395172898481
 108    6.6557150816457e-05
 109    -0.00013194145148909
 110    5.4776171194709e-05
 111    -0.00010559307775928
 112    -4.2707649530438e-05
 113    -0.00015002667623349
 114     0.001009025139207
 115    -0.0019088364730267
 116    -0.00048524045992643
 117    0.0012594106194753
 118     0.000576294687701
 119    -0.00068228885380366
 120    0.0022747705500324
 121    0.0010318903394285
 122    -0.001102485829113
 123    0.0033187365458243
 124    0.0017552687537749
 125    -0.0025606196986532
 126    -0.00013480460743358
 127    -0.00010397942318548
 128    1.8259847425679e-05
 129    0.00019133947293154
 130    0.00022999222192619
 131    0.0012771862188164
 132    -0.0083753599038809
 133     0.010667340547761
 134    0.0058476685747444
 135     0.018745504053593
 136    -0.010912504559159
 137    -0.0072357631461603
 138     0.031773777065934
 139    -0.018703822074481
 140    -0.012720904992694
 141     0.052450121595219
 142    -0.030414604993407
 143    -0.019760070504818
 144    0.0008559368337552
 145    0.0020625381887064
 146    -0.0006468205515511
 147    -0.00063959431771305
 148    0.0012754152638599
 149    4.9108131823187e-05
 150    -0.00030905961614659
 151    -0.00085194832390665
 152    0.0043948021069285
 153    -0.0087741604790647
 154    -0.027039080289216
 155    -0.0094400508437993
 156     -0.01477561661017
 157     -0.04557144992398
 158    -0.015743258424952
 159    -0.023628759129845
 160    -0.077748767694512
 161    -0.026424396317859
 162    0.0010669498496458
 163    0.0013341909877919
 164    0.0016178750977506
 165     0.001884254333692
 166    0.0014196012948689
 167    -0.00031917190113624
 168    0.0021075369692896
 169    -0.0041291560183336
 170    0.0025243007899141
 171    -0.015299079834681
 172    0.0067036025735945
 173    -0.020149963721335
 174    -0.025669261367481
 175     0.011252658271557
 176    -0.033820990295054
 177    -0.042809486162445
 178     0.020198510895544
 179    -0.056951139012877
 180    0.00082572012603631
 181     0.001278548679128
 182    0.0013567145462478
 183    0.0017378513151118
 184    0.00096774197032426
 Sym= A
 Ene=               1
 Spin= Alpha
 Occup=    1.00000
   1    -0.00063333009834418
   2    0.0018766212430097
   3    -0.0084964725937697
   4    0.0099958854094202
   5    -0.0021455128578264
   6    -0.0027006142430789
   7    -0.0020884366962306
   8    0.00061359414747073
   9    0.0086274999416527
  10    0.0066500294780571
  11    -0.0019661392669263
  12    -0.0070216575539174
  13    -0.013436932778399
  14    0.0084035909442265
  15    -0.0015834687620633
  16    -0.00042787002061439
  17    0.00051522769708052
  18    0.0016194860187896
  19    0.0020350272362498
  20    -0.0014801657812993
  21    -0.002419092043442
  22     0.001180098723096
  23    0.00063317906491533
  24    0.0047352483722432
  25    -2.1188966560027e-05
  26    0.00040208911410353
  27    0.00014668898427295
  28     0.000114020860787
  29    -0.0003317347045021
  30    -0.00032749329984571
  31    -0.00062813594256166
  32    -0.0028580724366934
  33    -0.0073384652453161
  34    -0.0041647476174467
  35     0.012278931557808
  36     -0.07196983377132
  37     0.050860976776369
  38     0.013652761817117
  39    -0.069270816919968
  40     0.049547840108827
  41     0.000652362286063
  42     0.001460318892607
  43    -0.0011355681567048
  44    0.00055636234373946
  45    -0.0016181709709498
  46    -0.00097527308488586
  47    0.0028996039631097
  48    -0.012974935947466
  49     0.025121071830062
  50    -0.0097147282949276
  51    -0.00016986629291703
  52    -0.0062564077945723
  53    0.0038806953172854
  54    0.00054525790122164
  55     0.019225916279233
  56    -0.011878249041605
  57    -0.0014297691566508
  58    -0.027044840109576
  59     0.018484531826348
  60      0.49658649274625
  61     -0.23836559899384
  62     -0.52067991252263
  63     0.070678954439236
  64       0.4343227324497
  65      0.13331834098283
  66    -0.063052526941491
  67     -0.14004176931378
  68       0.0184710895335
  69      0.11510095270314
  70    0.00040885001399594
  71    -0.0015337771835074
  72    -0.00067900827586474
  73    0.00076818070472892
  74    0.0017163878797721
  75    3.6014133947487e-05
  76    -0.0013914687508263
  77    -0.00032878348463814
  78    0.0021797564101338
  79    -0.0030199625722852
  80    -0.0056611537882287
  81    0.0026441358895588
  82    -0.00012424935927954
  83    0.0020731629447778
  84    0.0046696632673642
  85    -0.00015805861922778
  86    0.0035154466913201
  87    0.0070971272588561
  88    -0.0018016046837854
  89    0.0085952259188647
  90    -5.0330293916134e-05
  91    0.00059822194431589
  92    5.0755243986379e-05
  93    0.00032114215550567
  94    -0.00013720572439277
  95    -8.9289324637068e-05
  96    0.00060048731413079
  97    -0.0012582114871859
  98    0.00047088146108545
  99    0.00073460072765925
 100    0.0004205087524195
 101    -0.00091880767850568
 102    0.0013263044407741
 103    0.00057372224705426
 104    -0.0015056149675062
 105    0.0018977392675159
 106    0.0024247655483255
 107    -0.0029075582343143
 108    -0.0001724361158763
 109    -0.00015737855931601
 110    3.277303675322e-05
 111    0.00011399100809881
 112    1.0150159511078e-05
 113    0.00024101761214673
 114    -0.001602723297517
 115    0.0022618274771291
 116    0.0044110213809515
 117    -0.0027861031221698
 118    -0.00069349275016764
 119    -0.00096393766001082
 120    -0.005009293320452
 121    -0.0011366284902387
 122    -0.0017191796749086
 123    -0.0071092091592346
 124    -0.0042870009805771
 125    -0.0018573964954559
 126    9.7696742164907e-05
 127    -0.00023970307769929
 128    -0.00018828762497424
 129    -0.00050496658413516
 130    -0.00015938363709388
 131    0.0002074663453406
 132    -0.0013545072881576
 133    0.0011685793497482
 134    0.0014321766099998
 135    -3.5898174288205e-05
 136     0.021916961174863
 137    -0.014599686964994
 138    -1.8242710361022e-05
 139     0.036925409917947
 140    -0.024797106888435
 141    -0.0002225514330985
 142     0.062893657815343
 143    -0.041574792822011
 144    -0.0025043744953361
 145    -8.1634738221378e-05
 146    0.0012414719254359
 147    -0.0015331754211637
 148    9.9892451200629e-05
 149    -0.00036410665110344
 150    0.0024417977662969
 151    -0.0050088074926762
 152    0.0047284719986937
 153    -0.017306088218007
 154    0.0058014334309228
 155     0.013086726449313
 156    -0.029349881305351
 157    0.0097091574554537
 158     0.022015147173431
 159    -0.046594275822731
 160     0.016552640397301
 161     0.038259309018871
 162    -0.0022552255177209
 163    0.00022232344891127
 164    0.00021275798739217
 165    0.0011458407120362
 166    -0.0010801624342224
 167    0.0010918757179605
 168    -0.0071473750971656
 169    0.0091623006904942
 170    0.0040773914283808
 171      0.01379068580613
 172     0.010470445521625
 173    -0.010540597955696
 174     0.023294636432019
 175     0.017918018423814
 176    -0.017662185937019
 177     0.038441829587805
 178     0.029223124130566
 179    -0.030476890739323
 180    0.0010678517253697
 181    -3.7414250873166e-05
 182    0.0013577954396705
 183    -0.00056159188885519
 184    -0.0010212657506698
 Sym= A
 Ene=               2
 Spin= Alpha
 Occup=    1.00000
   1    0.00094985478504131
   2    -0.0028121605330794
   3     0.012759829174619
   4     -0.01381629241937
   5    0.0047358588290192
   6    0.0041781457466575
   7    -0.0025985239758763
   8    -0.0010456350212207
   9    -0.013399481631571
  10    0.0082717464948876
  11    0.0033534803964967
  12     0.012718283908337
  13    -0.015881327914205
  14    -0.013393138433605
  15    0.0017782651216391
  16    -3.3973912312871e-05
  17    0.00033580102231426
  18    -0.0032405697573894
  19    0.0022818309088878
  20     0.002108615611423
  21    0.0032744986353535
  22    0.0015809696902788
  23    -0.0019672022516496
  24    0.0053300273632246
  25    2.1249237504021e-05
  26    -0.00058861735020859
  27    6.7995178252971e-05
  28    -1.7296959625754e-05
  29    -0.00038069460589446
  30    0.0004748053402517
  31    -0.00071619635198463
  32    0.0045999386554638
  33     0.011337198898612
  34    0.0085744927839842
  35    -0.022978390981869
  36    -0.082235533994011
  37    -0.070868999500391
  38    -0.025764404886381
  39    -0.080348752188127
  40    -0.068981518822152
  41    -0.00072546682804567
  42    -0.0020292604405296
  43    -0.0011690888889116
  44    -0.0010740129576443
  45    -0.0018742111536105
  46    -0.0006252120681197
  47    0.0018618760709463
  48    -0.0083171064507833
  49     0.010865261853108
  50    0.0014044828662384
  51    0.0020765640940573
  52    0.0045010060921414
  53    0.0043313053526558
  54    -0.0064352271625978
  55    -0.014227134253534
  56    -0.013762503176396
  57     0.005623185300979
  58    0.0072285385367176
  59    0.0063245232161811
  60     -0.55456189185109
  61      0.35173257854161
  62     -0.31408524025453
  63     -0.11805763521754
  64      0.46978583342445
  65     -0.14522017899483
  66     0.090450200368273
  67    -0.082171209955641
  68    -0.032360114150589
  69      0.12090913167364
  70    -0.00022368154674564
  71    0.0017869629586056
  72    4.4264207775538e-05
  73    -0.0015494739994516
  74    0.0013904529552689
  75    -0.0002256097263294
  76    -0.0019114588262547
  77    0.00015632636254721
  78    -0.001046438761768
  79    0.0016065613091641
  80    0.0021473397523737
  81    -0.00034620604521261
  82    0.0015276883129397
  83    -0.00041679250130393
  84    -0.00058553309320821
  85      0.00241778930915
  86    -0.00077079404432224
  87    -0.0018264175228237
  88    0.0063955783865118
  89    -0.0016738876108602
  90    4.3401942698297e-05
  91    -0.00028400326360995
  92    0.0001278840235117
  93    -4.2363629161466e-05
  94    0.00030282584482763
  95    -0.00018639579158496
  96      0.00122432082051
  97    -0.00098336322535383
  98    -0.0071960770623975
  99    0.0025773048217804
 100    0.00053915895553633
 101    0.00086032012491228
 102    0.0045082386560918
 103    0.0009812808822765
 104    0.0016859500612885
 105    0.0083893431272552
 106    -0.00010636243673439
 107    -0.001171792274599
 108    -0.00016411894204744
 109    0.00027683512087026
 110    -0.00013016961650059
 111    0.00019836160069377
 112    0.00015455196934827
 113    0.00040093606583584
 114    -0.0026861548627592
 115    0.0046712021125624
 116    0.0030015156048304
 117    -0.0033546362857045
 118    -0.0015228515193049
 119    0.00095768239359049
 120    -0.0059439165614442
 121    -0.0027117994909633
 122    0.0014374672845126
 123    -0.0095650955141436
 124    -0.0053484963019262
 125    0.0045326706977444
 126    0.00038035015817426
 127    0.0001000971007578
 128    -0.00011262328084221
 129    -0.00051936344995727
 130    -0.00063039105412226
 131     0.003705817440997
 132    -0.024287031351267
 133     0.030298066515982
 134     0.030595410318085
 135    -0.009945370582886
 136    -0.027668759011883
 137    -0.030225339986587
 138    -0.016572172518376
 139    -0.047095020462038
 140      -0.0518556264877
 141    -0.028237676758168
 142    -0.082637038707221
 143    -0.092641988427709
 144     0.001178276972676
 145    -0.0017361827136467
 146    5.5227624383238e-05
 147    -4.2203890909942e-05
 148    -0.00036230306034717
 149    -0.00042344038581659
 150     0.002744196412176
 151    -0.0029251865077644
 152    -0.005232298732792
 153    -0.0006529275140287
 154    -0.0058532108440442
 155    -0.010728217231017
 156    -0.0011392903440193
 157    -0.010100589940816
 158    -0.018279591939975
 159    -0.0025565379530609
 160    -0.015270708605199
 161    -0.030487530873198
 162    0.00081772370198653
 163    0.00048070662611684
 164    0.00035896979934179
 165    0.0004426966017881
 166    0.0015543154224752
 167    -0.0029008084631134
 168     0.018888141845991
 169    -0.022758040658758
 170     -0.02598450050469
 171    0.00061287424334778
 172    -0.029118610464254
 173    -0.022402914800584
 174    0.00076857406995512
 175    -0.049127905444862
 176    -0.037466661697401
 177    0.00037584486857454
 178    -0.088145967966641
 179    -0.065577689355777
 180    0.00073505828849363
 181    0.00026766356987272
 182    0.00018508463212902
 183    0.0011352228035696
 184    -0.0019241883279814
 Sym= A
 Ene=               3
 Spin= Alpha
 Occup=    1.00000
   1    0.0011754947644098
   2    -0.003448395186314
   3     0.015936073356618
   4    -0.016597993688721
   5    -0.0018231841401382
   6    0.0046103580821082
   7    0.0017674613345575
   8    -0.00014437293521979
   9    -0.014872742720991
  10    -0.0056499559166852
  11    0.00049487415294991
  12     0.014452664253745
  13     0.012219463696082
  14    -0.010498358400595
  15    0.0022890782281366
  16    -0.0015002707090518
  17    -0.00038141718164427
  18    -0.0039785912472192
  19    -0.0017528242396993
  20    0.0017504821142803
  21    0.0018770481830915
  22    -0.000493192436997
  23    -0.0016250478165877
  24    -0.0034797099805278
  25    -0.00010525238747446
  26    -0.00042810035595837
  27    -0.00012824922996203
  28    9.1004457287695e-05
  29    0.00026134667829857
  30    0.00047145294871931
  31    0.00046395259293278
  32    0.0079942725504647
  33     0.017696832710507
  34     0.019370732491436
  35    -0.039115131646542
  36     0.056772336198828
  37    -0.053882618605011
  38    -0.044810609260473
  39     0.056530022777593
  40     -0.05179358373073
  41    5.0285504175483e-05
  42    -0.0016593863803196
  43    0.00039917140824132
  44    -0.00098245402536251
  45     0.001103172963053
  46    -0.00069360021975187
  47    0.0020998570847077
  48    -0.0090661632705105
  49    0.0096315248867693
  50    0.0068272114265672
  51    0.0085988858916755
  52    -0.0079423307518235
  53    0.0069220113622273
  54     -0.02674701027187
  55     0.024837743802819
  56    -0.021794891565657
  57     0.025382811463344
  58     -0.02660471159128
  59      0.02435663410473
  60      0.14818941132459
  61      0.51397095662777
  62     -0.46318370239033
  63        0.169402981343
  64     -0.47495674328761
  65     0.041740060009693
  66      0.13312468558707
  67     -0.12215103407482
  68     0.041266866396073
  69     -0.12126467944326
  70    0.0012620203965576
  71    0.0014768464090955
  72    -0.0010936761338848
  73    -0.0010261523088947
  74    -0.0011391843819063
  75    5.4749714865753e-05
  76    0.0012873203565238
  77    0.00028692753292795
  78    -0.0018905025114657
  79    0.0017721357828774
  80     0.008717319502677
  81    -0.00058086833403572
  82    0.00038744266018909
  83    -0.0015865347011397
  84    -0.0011591798695621
  85    0.0005652856559967
  86    -0.0024964071847673
  87    -0.0022110553747108
  88    0.0031907183332773
  89    -0.0087615442645129
  90    -8.704871546627e-05
  91    -0.00067526536042692
  92    -1.1848248340512e-05
  93    -0.00019957806591918
  94    0.00026530814110488
  95    0.00014564743335415
  96    -0.00096471399905891
  97    0.0017792886023227
  98    -0.00020880423720395
  99    -0.00094260426021438
 100    -0.00015685065520965
 101    0.0010788671163585
 102    -0.0017346620283347
 103    -9.6040194094136e-06
 104    0.0018685023821526
 105    -0.0022160365608163
 106    -0.0024735381407632
 107    0.0025250179031733
 108    0.00022884616753366
 109    0.00032710862901894
 110    -0.0001029070639766
 111    -0.00025119077898013
 112    0.00014547978878203
 113    -9.5955686103159e-05
 114    0.00065553247934781
 115    -0.0010111794477514
 116    -0.0024263194991213
 117    0.0017215642204189
 118    -6.4770928898706e-07
 119    0.00099807854004051
 120    0.0031707383226284
 121    -0.0001755955180226
 122    0.0017162279456843
 123    0.0038851536803704
 124    0.0027267131194934
 125    0.0023246393492486
 126    6.7347633903982e-05
 127    0.00021002931169292
 128    0.00014706561590715
 129    0.00042209476476908
 130    -0.0001111906736702
 131    0.0018815217290569
 132    -0.012409154427715
 133     0.017379112388253
 134     0.010248661081832
 135    -0.0067782261349456
 136    0.0045966641156602
 137    -0.025326415642035
 138    -0.011437175110389
 139     0.007629933137785
 140    -0.043691978400748
 141    -0.019648013886722
 142     0.011961493886031
 143    -0.073166658374329
 144    -0.0016995357540787
 145    -0.0004530334874394
 146    0.0011473363621673
 147    -0.0010043931071788
 148    -0.001355718827324
 149    -0.0057564224834662
 150     0.037775337129872
 151    -0.050256610228299
 152    -0.038231002354965
 153    -0.032667120489657
 154      0.02808350620622
 155    -0.041937449371013
 156    -0.056188356493168
 157     0.048298135278986
 158    -0.071729250957986
 159    -0.095121937521612
 160     0.081774450877622
 161     -0.12304722095495
 162    -0.0012619602233597
 163    -0.0015115941496298
 164    0.00091006174998252
 165    -0.00081098731135177
 166    0.00045745317448088
 167    0.0032963019930922
 168    -0.021616312701729
 169     0.029208535319038
 170     0.020232263389244
 171    0.0029829078280712
 172     0.036032627503723
 173    0.00066035278680356
 174    0.0054222692308834
 175     0.061313230947926
 176    0.00099361905816473
 177    0.0080454131142388
 178      0.10620988432579
 179    0.0029411989084936
 180    0.00036888233585988
 181    0.0010899175215475
 182    0.0020704171898228
 183    0.0001170829639542