[Molden Format]
made by pyscf v[2.1.1]
[Atoms] (AU)
Fe   1   26     3.17068844873907     0.00098706064664     0.12237737881307
O   2   8     0.00000000000000     0.00000000000000    -0.89004350580623
Fe   3   26    -3.17068844873907    -0.00098706064664     0.12237737881307
Cl   4   17     3.53383895113107    -2.07485195383062     3.76228752659000
Cl   5   17     5.54152580550813    -1.85590924879884    -2.78672786652360
Cl   6   17     4.48169216485503     3.92976278472880    -0.95330240907949
Cl   7   17    -3.53383895113107     2.07485195383062     3.76228752659000
Cl   8   17    -5.54152580550813     1.85590924879884    -2.78672786652360
Cl   9   17    -4.48169216485503    -3.92976278472880    -0.95330240907949
[GTO]
1 0
 s    6 1.00
          60923.640643  0.0017552243692958
          9147.8893982   0.013449023284001
          2081.3505927   0.066678874640978
          587.55977067    0.23176348548844
           191.0904399    0.46945550248188
          65.732730112     0.3596824938678
 s    3 1.00
          127.25891928   -0.10723431835929
           14.83091301    0.62971616328466
          6.0653307408    0.44472317896179
 s    3 1.00
           10.44994371   -0.21694289195548
          1.7245228003    0.69457867408393
         0.71772177325    0.43298308896347
 s    1 1.00
        0.091449828308                   1
 s    1 1.00
        0.033706691021                   1
 p    5 1.00
          773.43750995  0.0091440529992506
          182.15149714   0.067887577136571
          57.547272758    0.26167978878504
          20.614988935    0.51088040113251
           7.634855789    0.33235475570224
 p    3 1.00
           3.871932799    0.33193859098144
          1.4924724132     0.5553666555499
         0.56061284958    0.23106034201617
 p    1 1.00
              0.134915                   1
 d    4 1.00
          38.968133419   0.033335938558743
          10.800067078    0.17766212505983
          3.6136457999      0.441281781625
          1.2129967888    0.57089200490673
 d    1 1.00
          0.3652439317                   1
 f    1 1.00
                 1.598                   1

2 0
 s    5 1.00
          2266.1767785  -0.0053893503921743
          340.87010191   -0.04023472138896
          77.363135167   -0.18008184205526
           21.47964494   -0.46828857657651
          6.6589433124   -0.44692617160187
 s    1 1.00
         0.80975975668                   1
 s    1 1.00
         0.25530772234                   1
 p    3 1.00
          17.721504317   0.062630248763161
           3.863550544    0.33331138482352
          1.0480920883    0.74148638308122
 p    1 1.00
         0.27641544411                   1
 d    1 1.00
                   1.2                   1

3 0
 s    6 1.00
          60923.640643  0.0017552243692958
          9147.8893982   0.013449023284001
          2081.3505927   0.066678874640978
          587.55977067    0.23176348548844
           191.0904399    0.46945550248188
          65.732730112     0.3596824938678
 s    3 1.00
          127.25891928   -0.10723431835929
           14.83091301    0.62971616328466
          6.0653307408    0.44472317896179
 s    3 1.00
           10.44994371   -0.21694289195548
          1.7245228003    0.69457867408393
         0.71772177325    0.43298308896347
 s    1 1.00
        0.091449828308                   1
 s    1 1.00
        0.033706691021                   1
 p    5 1.00
          773.43750995  0.0091440529992506
          182.15149714   0.067887577136571
          57.547272758    0.26167978878504
          20.614988935    0.51088040113251
           7.634855789    0.33235475570224
 p    3 1.00
           3.871932799    0.33193859098144
          1.4924724132     0.5553666555499
         0.56061284958    0.23106034201617
 p    1 1.00
              0.134915                   1
 d    4 1.00
          38.968133419   0.033335938558743
          10.800067078    0.17766212505983
          3.6136457999      0.441281781625
          1.2129967888    0.57089200490673
 d    1 1.00
          0.3652439317                   1
 f    1 1.00
                 1.598                   1

4 0
 s    5 1.00
          10449.827566  0.0054265953789407
          1571.7365221   0.040626378128836
          357.12065523    0.18359747852877
          100.25185935    0.47438948768198
          30.812727554    0.43735181104122
 s    3 1.00
          51.923789434  -0.092754154848099
          5.7045760975    0.56380825544207
          2.3508376809    0.50367044629712
 s    1 1.00
         0.44605124672                   1
 s    1 1.00
          0.1684885619                   1
 p    5 1.00
          307.66790569  -0.0088797025588865
          72.102015515  -0.064284071721237
          22.532680262   -0.24288739736006
          7.8991765444   -0.48340836369878
          2.8767268321   -0.38952563875509
 p    1 1.00
         0.77459363955                   1
 p    1 1.00
         0.21037699698                   1
 d    1 1.00
                  0.65                   1

5 0
 s    5 1.00
          10449.827566  0.0054265953789407
          1571.7365221   0.040626378128836
          357.12065523    0.18359747852877
          100.25185935    0.47438948768198
          30.812727554    0.43735181104122
 s    3 1.00
          51.923789434  -0.092754154848099
          5.7045760975    0.56380825544207
          2.3508376809    0.50367044629712
 s    1 1.00
         0.44605124672                   1
 s    1 1.00
          0.1684885619                   1
 p    5 1.00
          307.66790569  -0.0088797025588865
          72.102015515  -0.064284071721237
          22.532680262   -0.24288739736006
          7.8991765444   -0.48340836369878
          2.8767268321   -0.38952563875509
 p    1 1.00
         0.77459363955                   1
 p    1 1.00
         0.21037699698                   1
 d    1 1.00
                  0.65                   1

6 0
 s    5 1.00
          10449.827566  0.0054265953789407
          1571.7365221   0.040626378128836
          357.12065523    0.18359747852877
          100.25185935    0.47438948768198
          30.812727554    0.43735181104122
 s    3 1.00
          51.923789434  -0.092754154848099
          5.7045760975    0.56380825544207
          2.3508376809    0.50367044629712
 s    1 1.00
         0.44605124672                   1
 s    1 1.00
          0.1684885619                   1
 p    5 1.00
          307.66790569  -0.0088797025588865
          72.102015515  -0.064284071721237
          22.532680262   -0.24288739736006
          7.8991765444   -0.48340836369878
          2.8767268321   -0.38952563875509
 p    1 1.00
         0.77459363955                   1
 p    1 1.00
         0.21037699698                   1
 d    1 1.00
                  0.65                   1

7 0
 s    5 1.00
          10449.827566  0.0054265953789407
          1571.7365221   0.040626378128836
          357.12065523    0.18359747852877
          100.25185935    0.47438948768198
          30.812727554    0.43735181104122
 s    3 1.00
          51.923789434  -0.092754154848099
          5.7045760975    0.56380825544207
          2.3508376809    0.50367044629712
 s    1 1.00
         0.44605124672                   1
 s    1 1.00
          0.1684885619                   1
 p    5 1.00
          307.66790569  -0.0088797025588865
          72.102015515  -0.064284071721237
          22.532680262   -0.24288739736006
          7.8991765444   -0.48340836369878
          2.8767268321   -0.38952563875509
 p    1 1.00
         0.77459363955                   1
 p    1 1.00
         0.21037699698                   1
 d    1 1.00
                  0.65                   1

8 0
 s    5 1.00
          10449.827566  0.0054265953789407
          1571.7365221   0.040626378128836
          357.12065523    0.18359747852877
          100.25185935    0.47438948768198
          30.812727554    0.43735181104122
 s    3 1.00
          51.923789434  -0.092754154848099
          5.7045760975    0.56380825544207
          2.3508376809    0.50367044629712
 s    1 1.00
         0.44605124672                   1
 s    1 1.00
          0.1684885619                   1
 p    5 1.00
          307.66790569  -0.0088797025588865
          72.102015515  -0.064284071721237
          22.532680262   -0.24288739736006
          7.8991765444   -0.48340836369878
          2.8767268321   -0.38952563875509
 p    1 1.00
         0.77459363955                   1
 p    1 1.00
         0.21037699698                   1
 d    1 1.00
                  0.65                   1

9 0
 s    5 1.00
          10449.827566  0.0054265953789407
          1571.7365221   0.040626378128836
          357.12065523    0.18359747852877
          100.25185935    0.47438948768198
          30.812727554    0.43735181104122
 s    3 1.00
          51.923789434  -0.092754154848099
          5.7045760975    0.56380825544207
          2.3508376809    0.50367044629712
 s    1 1.00
         0.44605124672                   1
 s    1 1.00
          0.1684885619                   1
 p    5 1.00
          307.66790569  -0.0088797025588865
          72.102015515  -0.064284071721237
          22.532680262   -0.24288739736006
          7.8991765444   -0.48340836369878
          2.8767268321   -0.38952563875509
 p    1 1.00
         0.77459363955                   1
 p    1 1.00
         0.21037699698                   1
 d    1 1.00
                  0.65                   1

[5d]
[7f]
[9g]

[MO]
 Sym= A
 Ene=               0
 Spin= Alpha
 Occup=    1.00000
   1      0.01779766752108
   2    -0.046714812994493
   3      0.26461815255215
   4       0.2542213771761
   5    -0.078648360425473
   6    -0.026922263017512
   7    -0.0089046319946418
   8     0.017926726479432
   9     0.089480691599451
  10     0.029809943814722
  11    -0.061195166505319
  12     0.097979976118435
  13     0.021906813851937
  14    -0.029289366560663
  15    0.0001580100298434
  16     -0.02935342406607
  17    0.00030334498141467
  18    -0.017423487028895
  19    -0.0033745458841083
  20    0.0018215072309387
  21    -0.027710065258485
  22    0.00098239100566151
  23    -0.020609176341547
  24    -0.0016156303987393
  25    0.0016187875157244
  26    0.0011183606861848
  27    -0.002125840734192
  28    -0.00057318123213508
  29    0.00085511705252514
  30    -0.0019220630412484
  31    -0.0012300818759714
  32     0.010332572583198
  33     0.035491936716741
  34     0.043196390805066
  35     0.042142760492703
  36     0.012540653039108
  37    -0.017461091287871
  38     0.049963921283096
  39    0.0082392843496762
  40    -0.0059804983532757
  41    -0.0017576761785834
  42    0.0019108366954487
  43    0.00029327376837353
  44    0.0026380504001277
  45    0.00016915131096656
  46    -0.0009011476285397
  47    0.0021739138064552
  48    -0.014322765865965
  49    0.0021384687561587
  50     0.017239143542275
  51    0.0075228534251522
  52    0.0045793620865982
  53    -0.0047432186624804
  54      -0.0255989529299
  55    -0.015234757803368
  56     0.016047258899899
  57    -0.0040415736727378
  58    -0.0044318860858147
  59    -0.0043888510244558
  60    0.0023073842080977
  61    0.0010849822546193
  62    0.0020139281789502
  63    -0.0084423398833481
  64    0.0045008107860314
  65    0.0012607892861469
  66    -0.0027796855770188
  67    0.0005650952642672
  68    -0.0032615387358776
  69    0.0033871723415021
  70    8.8599819024448e-06
  71    0.0002115442609657
  72    8.4830468375502e-06
  73    5.6459084202066e-05
  74    -0.00013801300797868
  75    -0.00013251361070813
  76    0.00013354842614204
  77    0.0057772956462018
  78     -0.03902413739818
  79     0.069152283565975
  80     0.045927668459377
  81      0.01808455171328
  82     0.017163751688852
  83    -0.028627998970093
  84     0.036735002330386
  85     0.032050810977674
  86    -0.055077613184713
  87     0.048952127336976
  88     0.042198393589665
  89    -0.070637483021964
  90    0.0063082957139949
  91    -0.0010612736590016
  92    -0.0071075806143825
  93    -0.0021944221054512
  94    0.00050704918419456
  95     0.017295689136999
  96     -0.12087012921178
  97      0.26021783055111
  98      0.13729375673972
  99    -0.037328968916873
 100     0.044312593333625
 101      0.05586798137438
 102    -0.083152101959561
 103     0.098300905086858
 104      0.12191560159158
 105     -0.11059594554133
 106      0.12375900219832
 107      0.15961193733625
 108    0.0057662846932258
 109    -0.014251568332107
 110     0.013020041280042
 111    0.00038546894642412
 112    -0.0093259267505834
 113     0.015663764936559
 114     -0.10914664797126
 115      0.23043135703827
 116      0.12422667540639
 117    -0.010590368791553
 118     -0.07412565496617
 119     0.015744239926682
 120    -0.024479091184066
 121     -0.16097354865866
 122     0.031556732810463
 123    -0.034005643703487
 124     -0.20938021739712
 125     0.046938066507983
 126    -0.0075532479587145
 127    -0.0023347938593636
 128    -0.0083535875915867
 129    -0.014267675783394
 130    0.0071626365446893
 131    0.00027612335219162
 132    -0.001917564996889
 133    0.0034857324574426
 134    0.0044064282185738
 135    -0.0036045332477392
 136    -0.0039623663010261
 137    0.00097014214739936
 138    -0.0076984767181238
 139    -0.0081026439464764
 140    0.0014708696573753
 141    -0.0087452479749156
 142    -0.012670593543802
 143    0.0015848547395842
 144    -0.00011066036484119
 145    0.0003392775035781
 146    0.00050702193902496
 147    -0.00031777612865255
 148    0.00028948421025931
 149    -0.00068988601904032
 150    0.0047110654932265
 151    -0.0078421474898861
 152    -0.012544727905084
 153    -0.0072489773883666
 154    -0.0011882505662426
 155    0.00093447590810321
 156    -0.014665717866214
 157    -0.0024957894626951
 158    0.0017776804214456
 159     -0.02262488659769
 160    -0.0017525097682281
 161    0.0012064754818336
 162    0.00018857357813143
 163    -0.00091185095530509
 164    0.00010488958837536
 165    -0.00053800676587792
 166    0.00053844889116904
 167    0.00084693993437666
 168    -0.0059600438956447
 169     0.013701875251661
 170     0.003928192202241
 171    -0.0015427865157574
 172      0.00393532274744
 173    0.0048615752896284
 174    -0.0031665456931984
 175    0.0091582051988167
 176    0.0097537360368159
 177    -0.0039725591200392
 178     0.010908079581794
 179     0.015060986444128
 180    2.4899830094221e-05
 181    0.00010567859104994
 182    0.00092565450381395
 183    -0.00067850402609813
 184    -0.00011863016589247
 Sym= A
 Ene=               1
 Spin= Alpha
 Occup=    1.00000
   1    -0.0093532360839007
   2     0.024752770545448
   3     -0.13823456273819
   4     -0.08068289525003
   5     0.027905338185622
   6    -0.012010397469829
   7    -0.044479139477616
   8      0.04311302605267
   9     0.040938045969159
  10      0.14954651795275
  11     -0.14477902877867
  12    -0.0057308040372416
  13       0.1020380466721
  14     -0.10555723910956
  15     -0.03754051207581
  16    0.0029867885152336
  17     0.022018995381518
  18    0.0016027386689826
  19    0.0084315424275531
  20    -0.030859167270891
  21    -0.001011404192784
  22     0.018372030471374
  23    0.0020065345152829
  24    0.0092640627184154
  25    -0.00043177167893251
  26    -0.00079826835308287
  27    0.0017906995207445
  28    0.00093024938677947
  29    0.00018633025314777
  30    -0.00043034870387519
  31    -8.6072279702865e-05
  32     0.024537585494506
  33    -0.0027660890430669
  34     -0.01287387384348
  35     0.043745121685602
  36     0.087727467267769
  37    -0.076071896086061
  38     0.029381553763883
  39      0.07085827911145
  40    -0.062457525829891
  41    -0.0018283873486341
  42    0.00010483526760832
  43     0.002068374192014
  44    -0.00081559335923062
  45    0.00093655448639558
  46    0.0066576356241314
  47    -0.017974228777856
  48     0.097070358169258
  49    -0.0011464015000784
  50    -0.0017626196616193
  51    -0.027743151921547
  52     0.026169326860909
  53    -0.014998199835307
  54      0.09344705389626
  55    -0.087143310995337
  56     0.049636355399243
  57    -0.0024532927873891
  58    -0.022709996739188
  59     0.018028068695381
  60     0.011221245721038
  61    -0.010307841545586
  62     0.016789169112672
  63    -0.041570848114609
  64     0.035937648973321
  65    0.0066609599554607
  66    -0.010246271794377
  67      0.01081460902047
  68    -0.024609937077261
  69     0.025720711985562
  70    5.7684044182253e-05
  71    0.0010988347643615
  72    0.00025708505555405
  73    0.00042357581209866
  74    -0.0010043819033533
  75    -0.00049970614179104
  76    0.00081539164709944
  77    -0.020332442081603
  78      0.14327601180099
  79     -0.32075780998966
  80     -0.16481960866336
  81      0.01217941073789
  82    -0.036613038861445
  83     0.086020181773837
  84     0.028718841614569
  85    -0.085187215945687
  86      0.19466627610479
  87     0.037890729898386
  88      -0.1126031971139
  89       0.2586083506792
  90    -0.015035925306311
  91    -0.0026757422764721
  92      0.01719269883723
  93    0.0047968494825683
  94    0.0015526366918078
  95    -0.0011902581275319
  96    0.0071592599903807
  97    -0.0022384270525071
  98    -0.012733018730392
  99    0.0062378606841519
 100     0.029110462292266
 101    -0.027865264557113
 102    0.0088485719996166
 103      0.06289071013989
 104    -0.052530104907441
 105     0.016098330240412
 106      0.08401101830274
 107    -0.073892375834087
 108    -0.0047212456869738
 109    0.0032672419426426
 110     0.001029428570698
 111    -0.0024291308302037
 112    -0.0011077906663464
 113    0.0090520068505316
 114    -0.065018651150223
 115      0.15768088128116
 116     0.069018363573422
 117    -0.015661612616727
 118     -0.03742941105237
 119     -0.01086594210241
 120    -0.037891436419476
 121    -0.093311089740618
 122    -0.016937395389833
 123    -0.047281586649732
 124      -0.1226158228812
 125    -0.025177228297634
 126    -0.0042578259828037
 127    -0.0010881684325297
 128    -0.0022901721863669
 129    -0.0057174207014049
 130    0.0042829163375849
 131    0.0022947054799116
 132    -0.015888758802354
 133      0.03389145719914
 134     0.015015354406055
 135     0.011758569606455
 136    -0.022498185268201
 137    -0.0016833625699689
 138     0.024605602142644
 139    -0.044723279250173
 140    -0.0035155282650995
 141     0.035170377369555
 142    -0.064628678060922
 143    -0.0026049996609309
 144    -3.7882343206882e-05
 145    -0.0012768148316427
 146    0.0027222691004157
 147    -0.0018662462336766
 148    -0.00022498967018085
 149    -0.0055275865889459
 150     0.039440587694668
 151    -0.093049041461493
 152    -0.053709022539687
 153    -0.011023756287699
 154    0.0049889781596738
 155    -0.021575968346873
 156    -0.028620395020987
 157     0.014525127755336
 158    -0.050435074138486
 159    -0.036412752566472
 160     0.020242543885226
 161    -0.072613374142961
 162    -0.0031763349634615
 163    -0.0042032860994204
 164    0.0030943036733492
 165    -0.00055460102083696
 166    0.0017969642788579
 167    0.0058392230002332
 168    -0.040488294011509
 169      0.08416801140986
 170     0.046746502381364
 171     0.024483144570437
 172     0.020035773366597
 173     0.018900110331543
 174      0.05037924569959
 175     0.042513690393088
 176     0.037942740602825
 177     0.071527214579122
 178     0.060530237875661
 179     0.055829240020707
 180    -0.0007738658161398
 181    0.0015103807788145
 182    0.0041773442071777
 183    -0.0035828177760486
 184    0.0032526304125059
 Sym= A
 Ene=               2
 Spin= Alpha
 Occup=    1.00000
   1    -0.003624612616862
   2     0.010877164401344
   3    -0.048458450400703
   4     0.053141520494389
   5     -0.02058240021047
   6    0.0035802532101126
   7     -0.01073340365207
   8    -0.015007874578281
   9    -0.012672568094173
  10      0.03594277705899
  11     0.050405081787663
  12    -0.077434608664081
  13     0.028156850526569
  14     0.025196349980127
  15    -0.044773183036578
  16     0.047666771669355
  17    -0.010745531033844
  18     0.077231212268708
  19    -0.0035693576217551
  20    -0.023141617599825
  21     0.025541867522449
  22    -0.0079051531416136
  23     0.038491266839074
  24    -0.00074664769080574
  25    0.0014333537625808
  26    0.0015518547933503
  27    0.00020703072331156
  28    -0.0020099535166409
  29    -0.0003291696053929
  30    -0.0032937639776593
  31    0.00069707595008889
  32    -0.083701558865862
  33      0.21233647522552
  34       0.1666865854731
  35      0.20699883503085
  36     0.069818001800692
  37       0.1347177861373
  38      0.16489191908684
  39     0.060009029164469
  40      0.11999685314826
  41    0.00063448983446388
  42    0.0056172633822134
  43    0.0013678209046307
  44    0.0054164723545008
  45    0.00019478673162837
  46    -0.0046155368617703
  47     0.012277491944604
  48     -0.06802901064771
  49    -0.021944317234127
  50    0.0040245875929074
  51     0.032436746652206
  52     0.010759286501542
  53    0.0039454893659532
  54     -0.10860094026627
  55    -0.035852375509553
  56    -0.012864661405406
  57    -0.028102307248232
  58    -0.0052073086512985
  59     0.007303268551097
  60     -0.01653998863244
  61     0.043689662049991
  62    -0.011281938993251
  63    -0.010369577914295
  64       0.0163496190952
  65     -0.01240024873976
  66     0.023947321801632
  67    -0.0079066471728348
  68    -0.0014013977320615
  69     0.011035874272909
  70    -0.00067498111675127
  71    -0.00083031905144638
  72    -0.00038986727815374
  73    0.0012034479529887
  74    -0.00024998030522822
  75    0.00025521526683661
  76    0.00073129681300331
  77    6.9195684542988e-05
  78    -0.0010655234928945
  79    0.0070798151776641
  80    0.0042920325378124
  81    -0.0060496183658352
  82    0.0072347025813072
  83     0.008310148724331
  84    -0.014859022708507
  85     0.016509013338948
  86     0.013792628606813
  87    -0.016180987712552
  88     0.020759466303154
  89     0.021070702200288
  90    -0.00069427826490029
  91    0.0015659968118897
  92    -0.0013689810294545
  93    -0.00029033895717805
  94    -0.00073385819124685
  95    -0.0063363860270661
  96     0.044711691967697
  97     -0.10338247453898
  98    -0.041769305826415
  99     0.014851172721564
 100    -0.012179517432347
 101    -0.023833887893297
 102     0.033714555016096
 103    -0.028564354946087
 104    -0.053817876612357
 105     0.044339532222192
 106    -0.035232300314396
 107    -0.069086006830001
 108    -0.0020422933891844
 109    0.0041225019694605
 110    -0.0030584179810225
 111    -0.00021661584455133
 112    0.0021544523233825
 113    -6.8565766878671e-05
 114    0.00019562910469229
 115    0.00051604952106089
 116    0.0060846385532094
 117    -0.0061175964576626
 118    0.0067926752117964
 119    0.0069197099494901
 120    -0.015050796374732
 121     0.012647899374016
 122     0.014581201233608
 123    -0.016149680594641
 124     0.015762956365273
 125     0.019494612392711
 126    -0.0002966965451967
 127    -0.0005601316702386
 128    -0.0010764053250215
 129    0.0012276522293316
 130    0.0021783603210669
 131    -0.0035143754479829
 132     0.024467143640926
 133    -0.052519690636793
 134    -0.026339221377156
 135     -0.02274834897347
 136    0.0030595158901409
 137     0.016056779987622
 138    -0.045831788305165
 139    0.0071201306455188
 140     0.033628866362582
 141     -0.06461209562218
 142    0.0096263929150429
 143     0.047866394644649
 144    -0.0029192631612646
 145    0.0010957481082756
 146    -0.0027379779269443
 147    0.0012604542650069
 148    0.00075843554297931
 149    0.0010627827188997
 150    -0.0079539230263238
 151     0.023287284463322
 152     0.010045970005882
 153    -0.012708171043375
 154    -0.011896583362614
 155    0.0079842804341493
 156    -0.022395718562129
 157    -0.025923030758037
 158     0.019051167730198
 159    -0.036476281595057
 160    -0.036376743408369
 161     0.025867437025723
 162    0.0013931979992499
 163    -0.0006587267059812
 164    -0.0018375037691704
 165    -0.0023781207740503
 166    0.00053519559584014
 167    0.0022183240188241
 168    -0.015915983531497
 169     0.038003006953453
 170     0.022030883293878
 171    -0.011650262586213
 172     0.013405331758543
 173    0.0035471336286329
 174     -0.02142072288688
 175     0.031370114376619
 176    0.0082039017264957
 177    -0.033272987463558
 178     0.044865502984416
 179     0.012787498843259
 180    -0.00020973126121277
 181    0.00027596769165938
 182    0.0018449443094148
 183    -0.0029165504335695
 184    -0.0019866895166471
 Sym= A
 Ene=               3
 Spin= Alpha
 Occup=    1.00000
   1    -0.001424924672018
   2    0.0042362128337563
   3    -0.018965525021934
   4     0.035399783825522
   5    -0.014055267532967
   6    -0.0010717140869175
   7    -0.00042200260522605
   8    0.0064306696053809
   9    0.0033635631238612
  10    0.0014271600667074
  11    -0.020019411637911
  12    -0.0034850920498258
  13    -0.00036439926657491
  14     0.026446211998247
  15     -0.19173342207751
  16      0.40669943451972
  17      0.61256422746241
  18     -0.39032716411497
  19      -0.1972435182238
  20    -0.050864904066761
  21      0.10984359272936
  22      0.16501626926922
  23     -0.10654184297643
  24    -0.053266975756113
  25    -0.00092189322214062
  26    0.00083680040321231
  27    0.0011083254852234
  28    0.00012777251470559
  29    0.00057607037186129
  30    -0.00076442325245159
  31    -0.00025204592163548
  32    -0.0015225034735142
  33    -0.0041053729593369
  34    -0.0021216678339432
  35    -0.0066125530429346
  36    0.00053776048711345
  37     0.039284019576999
  38    -0.0071098052778694
  39    0.00034224216452315
  40     0.038038940967119
  41    0.00014233599025723
  42    -0.00094321218592686
  43    0.00044363296573803
  44    2.0892307280663e-05
  45    -0.00015436091283222
  46    -0.00040830723178732
  47    0.0012218257560983
  48    -0.0054245620008776
  49    0.0057552573578945
  50    -0.00076775853505187
  51    0.0018905682093887
  52    -6.4662084650799e-05
  53    0.00062180820023664
  54    -0.0060253576920473
  55    0.00020753946372223
  56    -0.0019826187660271
  57    0.0048997774064696
  58    -0.00031086924425222
  59    0.0063647826532269
  60    -0.00042176261166099
  61    -0.00030095507659288
  62    0.0005480360770069
  63    0.0010825829794993
  64    2.3391570703572e-05
  65    -0.00094970247828674
  66    0.0015877435555246
  67    1.5200815776859e-05
  68     0.000419072186136
  69    0.00019248201895238
  70    -4.2647000936263e-05
  71    -0.00031226150810482
  72    -3.404518753178e-05
  73    8.555586918911e-05
  74    -6.8556118098819e-06
  75    0.00022396595838533
  76    1.1360754601334e-05
  77    0.0020234024076704
  78    -0.013272050035564
  79     0.016817024159112
  80     0.011668369987245
  81      -0.0159508853498
  82    0.0080314067708129
  83    -0.018019644511901
  84    -0.027096343368559
  85     0.013916166974508
  86    -0.031163161822125
  87    -0.044508615291139
  88     0.022816055570661
  89    -0.051611898795001
  90    0.0001273918175281
  91    -0.0016725742209439
  92    0.00013747110487429
  93    -0.0011299298552108
  94    0.0010692800811653
  95    -0.00067440529935904
  96    0.0044470114159712
  97    -0.0074699375696649
  98    0.00088751537579385
  99     0.015984267314688
 100     0.022062239612636
 101     -0.01122259454292
 102     0.027091113252757
 103     0.037145400388233
 104    -0.018894902778217
 105     0.043821548721708
 106     0.063107436926451
 107    -0.031652321331887
 108    0.00041878914349327
 109    -0.0012254547263956
 110    -0.0017146016863976
 111    0.0020554851397264
 112    0.0013350906267282
 113    -5.6741494658429e-05
 114    0.00037019705379086
 115    -0.0014506467275605
 116    0.0020108542908379
 117     0.010005435194568
 118    -0.0089000479624564
 119    -0.025105812977583
 120      0.01673645379448
 121    -0.015092842259499
 122    -0.042123896678636
 123      0.02821609163258
 124    -0.025832408871668
 125    -0.071350796620025
 126    0.0012180946161449
 127    -0.001344404543868
 128    -0.0019109885276402
 129    0.0016510401599311
 130    0.00044855806849593
 131    -0.00021990125547218
 132    0.0014813892580125
 133    -0.002743818237004
 134    -0.0013153196225141
 135    -0.001675970962332
 136    0.00063818395775404
 137    0.0009028956219085
 138    -0.0030700970065058
 139    0.0011161881817944
 140     0.001577992479444
 141    -0.0039634018894597
 142    0.0024237786817327
 143    0.0033296937327641
 144    -0.00010441864857469
 145    -0.00028317528334834
 146    2.7272990858699e-05
 147    0.00018512581823316
 148    -0.00019531200537516
 149    4.6772404809095e-05
 150    -0.00030642046013628
 151    0.00017062784137181
 152    0.0021468273849746
 153    0.00059840661338864
 154    -4.0067539897284e-05
 155    -0.00052300250071571
 156    0.0010324942205042
 157    -2.5931592778077e-05
 158    -0.00092095389362816
 159    0.0021377640581527
 160    -0.00087148946680683
 161    -0.00060744027215049
 162    6.2732027054121e-06
 163    0.00010306218051759
 164    -3.3910542472565e-05
 165    -4.9168447902635e-05
 166    -1.3232082768506e-05
 167    -3.571427733562e-05
 168    0.00024625091781249
 169    -0.00067734775608683
 170    0.00080172574755583
 171    -0.00016003153210151
 172    -0.00018293524237299
 173    -0.00064250145669829
 174    -0.00031656919671385
 175    -0.00033907521628813
 176    -0.0010840606746047
 177    -0.00033121118958292
 178    -0.00014150490680381
 179    -0.0019710260899969
 180    -4.7936868986409e-05
 181    0.00012318481884101
 182    2.9668827576542e-05
 183    1.3362103487487e-05
 184     8.98600573711e-05
 Sym= A
 Ene=               4
 Spin= Alpha
 Occup=    1.00000
   1    -0.00060324793327538