[Molden Format]
made by pyscf v[2.1.1]
[Atoms] (AU)
Fe   1   26     3.17068844873907     0.00098706064664     0.12237737881307
O   2   8     0.00000000000000     0.00000000000000    -0.89004350580623
Fe   3   26    -3.17068844873907    -0.00098706064664     0.12237737881307
Cl   4   17     3.53383895113107    -2.07485195383062     3.76228752659000
Cl   5   17     5.54152580550813    -1.85590924879884    -2.78672786652360
Cl   6   17     4.48169216485503     3.92976278472880    -0.95330240907949
Cl   7   17    -3.53383895113107     2.07485195383062     3.76228752659000
Cl   8   17    -5.54152580550813     1.85590924879884    -2.78672786652360
Cl   9   17    -4.48169216485503    -3.92976278472880    -0.95330240907949
[GTO]
1 0
 s    6 1.00
          60923.640643  0.0017552243692958
          9147.8893982   0.013449023284001
          2081.3505927   0.066678874640978
          587.55977067    0.23176348548844
           191.0904399    0.46945550248188
          65.732730112     0.3596824938678
 s    3 1.00
          127.25891928   -0.10723431835929
           14.83091301    0.62971616328466
          6.0653307408    0.44472317896179
 s    3 1.00
           10.44994371   -0.21694289195548
          1.7245228003    0.69457867408393
         0.71772177325    0.43298308896347
 s    1 1.00
        0.091449828308                   1
 s    1 1.00
        0.033706691021                   1
 p    5 1.00
          773.43750995  0.0091440529992506
          182.15149714   0.067887577136571
          57.547272758    0.26167978878504
          20.614988935    0.51088040113251
           7.634855789    0.33235475570224
 p    3 1.00
           3.871932799    0.33193859098144
          1.4924724132     0.5553666555499
         0.56061284958    0.23106034201617
 p    1 1.00
              0.134915                   1
 d    4 1.00
          38.968133419   0.033335938558743
          10.800067078    0.17766212505983
          3.6136457999      0.441281781625
          1.2129967888    0.57089200490673
 d    1 1.00
          0.3652439317                   1
 f    1 1.00
                 1.598                   1

2 0
 s    5 1.00
          2266.1767785  -0.0053893503921743
          340.87010191   -0.04023472138896
          77.363135167   -0.18008184205526
           21.47964494   -0.46828857657651
          6.6589433124   -0.44692617160187
 s    1 1.00
         0.80975975668                   1
 s    1 1.00
         0.25530772234                   1
 p    3 1.00
          17.721504317   0.062630248763161
           3.863550544    0.33331138482352
          1.0480920883    0.74148638308122
 p    1 1.00
         0.27641544411                   1
 d    1 1.00
                   1.2                   1

3 0
 s    6 1.00
          60923.640643  0.0017552243692958
          9147.8893982   0.013449023284001
          2081.3505927   0.066678874640978
          587.55977067    0.23176348548844
           191.0904399    0.46945550248188
          65.732730112     0.3596824938678
 s    3 1.00
          127.25891928   -0.10723431835929
           14.83091301    0.62971616328466
          6.0653307408    0.44472317896179
 s    3 1.00
           10.44994371   -0.21694289195548
          1.7245228003    0.69457867408393
         0.71772177325    0.43298308896347
 s    1 1.00
        0.091449828308                   1
 s    1 1.00
        0.033706691021                   1
 p    5 1.00
          773.43750995  0.0091440529992506
          182.15149714   0.067887577136571
          57.547272758    0.26167978878504
          20.614988935    0.51088040113251
           7.634855789    0.33235475570224
 p    3 1.00
           3.871932799    0.33193859098144
          1.4924724132     0.5553666555499
         0.56061284958    0.23106034201617
 p    1 1.00
              0.134915                   1
 d    4 1.00
          38.968133419   0.033335938558743
          10.800067078    0.17766212505983
          3.6136457999      0.441281781625
          1.2129967888    0.57089200490673
 d    1 1.00
          0.3652439317                   1
 f    1 1.00
                 1.598                   1

4 0
 s    5 1.00
          10449.827566  0.0054265953789407
          1571.7365221   0.040626378128836
          357.12065523    0.18359747852877
          100.25185935    0.47438948768198
          30.812727554    0.43735181104122
 s    3 1.00
          51.923789434  -0.092754154848099
          5.7045760975    0.56380825544207
          2.3508376809    0.50367044629712
 s    1 1.00
         0.44605124672                   1
 s    1 1.00
          0.1684885619                   1
 p    5 1.00
          307.66790569  -0.0088797025588865
          72.102015515  -0.064284071721237
          22.532680262   -0.24288739736006
          7.8991765444   -0.48340836369878
          2.8767268321   -0.38952563875509
 p    1 1.00
         0.77459363955                   1
 p    1 1.00
         0.21037699698                   1
 d    1 1.00
                  0.65                   1

5 0
 s    5 1.00
          10449.827566  0.0054265953789407
          1571.7365221   0.040626378128836
          357.12065523    0.18359747852877
          100.25185935    0.47438948768198
          30.812727554    0.43735181104122
 s    3 1.00
          51.923789434  -0.092754154848099
          5.7045760975    0.56380825544207
          2.3508376809    0.50367044629712
 s    1 1.00
         0.44605124672                   1
 s    1 1.00
          0.1684885619                   1
 p    5 1.00
          307.66790569  -0.0088797025588865
          72.102015515  -0.064284071721237
          22.532680262   -0.24288739736006
          7.8991765444   -0.48340836369878
          2.8767268321   -0.38952563875509
 p    1 1.00
         0.77459363955                   1
 p    1 1.00
         0.21037699698                   1
 d    1 1.00
                  0.65                   1

6 0
 s    5 1.00
          10449.827566  0.0054265953789407
          1571.7365221   0.040626378128836
          357.12065523    0.18359747852877
          100.25185935    0.47438948768198
          30.812727554    0.43735181104122
 s    3 1.00
          51.923789434  -0.092754154848099
          5.7045760975    0.56380825544207
          2.3508376809    0.50367044629712
 s    1 1.00
         0.44605124672                   1
 s    1 1.00
          0.1684885619                   1
 p    5 1.00
          307.66790569  -0.0088797025588865
          72.102015515  -0.064284071721237
          22.532680262   -0.24288739736006
          7.8991765444   -0.48340836369878
          2.8767268321   -0.38952563875509
 p    1 1.00
         0.77459363955                   1
 p    1 1.00
         0.21037699698                   1
 d    1 1.00
                  0.65                   1

7 0
 s    5 1.00
          10449.827566  0.0054265953789407
          1571.7365221   0.040626378128836
          357.12065523    0.18359747852877
          100.25185935    0.47438948768198
          30.812727554    0.43735181104122
 s    3 1.00
          51.923789434  -0.092754154848099
          5.7045760975    0.56380825544207
          2.3508376809    0.50367044629712
 s    1 1.00
         0.44605124672                   1
 s    1 1.00
          0.1684885619                   1
 p    5 1.00
          307.66790569  -0.0088797025588865
          72.102015515  -0.064284071721237
          22.532680262   -0.24288739736006
          7.8991765444   -0.48340836369878
          2.8767268321   -0.38952563875509
 p    1 1.00
         0.77459363955                   1
 p    1 1.00
         0.21037699698                   1
 d    1 1.00
                  0.65                   1

8 0
 s    5 1.00
          10449.827566  0.0054265953789407
          1571.7365221   0.040626378128836
          357.12065523    0.18359747852877
          100.25185935    0.47438948768198
          30.812727554    0.43735181104122
 s    3 1.00
          51.923789434  -0.092754154848099
          5.7045760975    0.56380825544207
          2.3508376809    0.50367044629712
 s    1 1.00
         0.44605124672                   1
 s    1 1.00
          0.1684885619                   1
 p    5 1.00
          307.66790569  -0.0088797025588865
          72.102015515  -0.064284071721237
          22.532680262   -0.24288739736006
          7.8991765444   -0.48340836369878
          2.8767268321   -0.38952563875509
 p    1 1.00
         0.77459363955                   1
 p    1 1.00
         0.21037699698                   1
 d    1 1.00
                  0.65                   1

9 0
 s    5 1.00
          10449.827566  0.0054265953789407
          1571.7365221   0.040626378128836
          357.12065523    0.18359747852877
          100.25185935    0.47438948768198
          30.812727554    0.43735181104122
 s    3 1.00
          51.923789434  -0.092754154848099
          5.7045760975    0.56380825544207
          2.3508376809    0.50367044629712
 s    1 1.00
         0.44605124672                   1
 s    1 1.00
          0.1684885619                   1
 p    5 1.00
          307.66790569  -0.0088797025588865
          72.102015515  -0.064284071721237
          22.532680262   -0.24288739736006
          7.8991765444   -0.48340836369878
          2.8767268321   -0.38952563875509
 p    1 1.00
         0.77459363955                   1
 p    1 1.00
         0.21037699698                   1
 d    1 1.00
                  0.65                   1

[5d]
[7f]
[9g]

[MO]
 Sym= A
 Ene=               0
 Spin= Alpha
 Occup=    1.00000
   1    0.0096509673810767
   2    -0.026011807649441
   3      0.14113981041225
   4    -0.012043235659714
   5    -0.014879089299468
   6     0.050251484976526
   7    -0.053048102595878
   8    -0.001578412048929
   9     -0.16963718863153
  10      0.17711013662975
  11    0.0043974602249659
  12    -0.0081508205021639
  13     0.059388420469681
  14    0.0091021700409484
  15    -0.0057174055178461
  16     -0.01266975830835
  17    -0.013646489280563
  18    -0.067636484298491
  19     0.071026593688378
  20    -0.0063173516185337
  21    -0.0019754735533938
  22    -0.0077899175542535
  23     -0.03741492386503
  24     0.049106549250907
  25    -0.00059361029365687
  26    -0.0012035896511011
  27    0.00016791333791856
  28    0.0019206219458994
  29    -0.0016655770048864
  30    0.00043242783417711
  31    -0.0017218867127829
  32    -1.4775994273739e-16
  33    -1.8918793131331e-16
  34    -8.5633844957116e-17
  35     -0.12195421818111
  36      -0.1524264322952
  37    -6.7286931245459e-16
  38     -0.11050525373279
  39     -0.14734752053171
  40    -6.2129261239737e-16
  41    -1.2459708953077e-17
  42    -0.0032428639750364
  43    -0.0031585559738666
  44    -4.9078795305307e-18
  45    3.4971409174004e-18
  46    -0.0096509673810766
  47     0.026011807649441
  48     -0.14113981041225
  49     0.012043235659714
  50     0.014879089299468
  51     0.050251484976526
  52    -0.053048102595877
  53    0.0015784120489285
  54     -0.16963718863153
  55      0.17711013662975
  56    -0.0043974602249643
  57    -0.0081508205021641
  58      0.05938842046968
  59    -0.0091021700409478
  60    0.0057174055178464
  61    -0.012669758308351
  62    -0.013646489280562
  63     0.067636484298491
  64    -0.071026593688378
  65    0.0063173516185339
  66    -0.0019754735533941
  67    -0.0077899175542532
  68     0.037414923865029
  69    -0.049106549250907
  70    0.00059361029365688
  71    -0.0012035896511011
  72    0.00016791333791857
  73    -0.0019206219458994
  74    0.0016655770048864
  75    0.0004324278341771
  76    -0.0017218867127829
  77    -0.0032898659741448
  78     0.023587627021366
  79    -0.056509696623564
  80    -0.027417354528461
  81     -0.01735873534681
  82     0.021725643707881
  83     0.026529356353444
  84     -0.03549514729237
  85     0.038561759036846
  86     0.059910830148085
  87    -0.053545244314776
  88     0.058075814607604
  89     0.084678766904663
  90    -0.0051718565715629
  91    0.0025219657456843
  92    0.0016068669559116
  93    -0.00068211128231537
  94    -0.0007775783964479
  95    -0.0082237888266273
  96     0.058493015744482
  97      -0.1367248848785
  98    -0.075121110470871
  99    0.0094055641662671
 100    0.00052056610039497
 101    -0.046849645440504
 102     0.028201352433743
 103    -0.0044511824173715
 104     -0.10297241453389
 105     0.033065855296592
 106    -0.0066718864625228
 107      -0.1489677719415
 108    -0.0066130818576428
 109    0.0068867842049986
 110    -0.0044430404496679
 111    -0.0017864563885409
 112    0.0023964630908696
 113     0.012837909118432
 114    -0.089055711542653
 115      0.18467904157404
 116      0.10715447199084
 117    -0.054358701010705
 118    -0.047555376234966
 119     0.023753893602093
 120     -0.11108994890461
 121     -0.10205353164012
 122     0.048392395989768
 123     -0.15804190601067
 124     -0.14553975489925
 125     0.071863758669733
 126    -0.0026636979881825
 127    -0.0034634152215875
 128    -0.0077609639319532
 129    -0.0083194547594768
 130    0.0064867437184872
 131    0.0032898659741449
 132    -0.023587627021366
 133     0.056509696623565
 134     0.027417354528462
 135     -0.01735873534681
 136     0.021725643707881
 137    -0.026529356353444
 138     -0.03549514729237
 139     0.038561759036845
 140    -0.059910830148086
 141    -0.053545244314776
 142     0.058075814607602
 143    -0.084678766904663
 144    0.0051718565715629
 145    0.0025219657456843
 146    0.0016068669559117
 147    0.00068211128231532
 148    0.00077757839644789
 149    0.0082237888266273
 150    -0.058493015744481
 151       0.1367248848785
 152      0.07512111047087
 153    0.0094055641662666
 154    0.00052056610039506
 155     0.046849645440504
 156     0.028201352433742
 157    -0.0044511824173713
 158      0.10297241453389
 159     0.033065855296591
 160    -0.0066718864625225
 161       0.1489677719415
 162    0.0066130818576428
 163    0.0068867842049985
 164    -0.0044430404496678
 165    0.0017864563885409
 166    -0.0023964630908696
 167    -0.012837909118432
 168     0.089055711542653
 169     -0.18467904157404
 170     -0.10715447199083
 171    -0.054358701010705
 172    -0.047555376234966
 173    -0.023753893602093
 174     -0.11108994890461
 175     -0.10205353164012
 176    -0.048392395989767
 177     -0.15804190601067
 178     -0.14553975489924
 179    -0.071863758669732
 180    0.0026636979881825
 181    -0.0034634152215875
 182    -0.0077609639319531
 183    0.0083194547594767
 184    -0.0064867437184871
 Sym= A
 Ene=               1
 Spin= Alpha
 Occup=    1.00000
   1    0.0030500504337057
   2    -0.0084088333887867
   3     0.043596144788374
   4     0.021641772661896
   5    0.0033225893195523
   6    -0.0026797875273577
   7    -0.031442998248277
   8    -0.056514477192505
   9    0.0085100223470928
  10      0.10441649231915
  11      0.18844858149905
  12     0.018505761121472
  13     0.040838152060658
  14     0.065633888259369
  15     0.026312235654479
  16     0.044954817277994
  17    -0.046628701086532
  18    -0.043051968705474
  19     0.027390622766124
  20     0.018318100360068
  21      0.03307200512618
  22    -0.030224168310016
  23     -0.02750588949832
  24     0.019844715288545
  25    0.00069017846330956
  26    -0.0018350433700151
  27    -0.001019508354898
  28    -0.00042780107708125
  29    -0.0013921431689309
  30    0.00060534765955152
  31    7.2650033219942e-05
  32    -0.048591795724035
  33    -0.048920385622309
  34    -0.023473231328011
  35    5.4636286945068e-16
  36    5.9842674195753e-16
  37     -0.14086277680547
  38    5.1417795233301e-16
  39    5.9074618082152e-16
  40     -0.13179473665497
  41    -0.0022889693562522
  42    1.5399563435117e-17
  43    1.2675091474544e-17
  44    -0.0015572342277086
  45    0.00061444317453768
  46    0.0030500504337058
  47    -0.0084088333887869
  48     0.043596144788375
  49     0.021641772661896
  50    0.0033225893195521
  51    0.0026797875273569
  52     0.031442998248278
  53    -0.056514477192505
  54    -0.008510022347091
  55     -0.10441649231915
  56      0.18844858149905
  57    -0.018505761121472
  58    -0.040838152060659
  59     0.065633888259369
  60     0.026312235654479
  61    -0.044954817277994
  62     0.046628701086532
  63    -0.043051968705475
  64     0.027390622766125
  65     0.018318100360068
  66     -0.03307200512618
  67     0.030224168310016
  68    -0.027505889498321
  69     0.019844715288546
  70    0.00069017846330955
  71    0.0018350433700151
  72     0.001019508354898
  73    -0.00042780107708123
  74    -0.0013921431689309
  75    -0.00060534765955153
  76    -7.2650033219928e-05
  77     0.010792588438155
  78    -0.075072233745939
  79      0.15978421781132
  80     0.086272771797828
  81    -0.010038317672124
  82      0.05864593864526
  83    -0.029676749398916
  84    -0.019710637447334
  85      0.12027084969406
  86    -0.067035620913347
  87    -0.027599572384605
  88      0.17244408551825
  89     -0.08973705299346
  90    0.0042178155253709
  91    0.00073419998205588
  92    -0.011443499181521
  93    -0.0051946102071925
  94    -0.00015312659083716
  95    -0.011083099635247
  96     0.078112335247576
  97     -0.17559163037099
  98    -0.098471840314106
  99     0.049836521287891
 100    -0.017041034002375
 101    -0.021546411606296
 102      0.10870621102324
 103    -0.040639960416697
 104    -0.052911569039462
 105      0.15002066305882
 106    -0.057448744259596
 107    -0.074192518445829
 108    -0.0023815911270501
 109    0.0090381680756935
 110    -0.0055886298429196
 111    -0.0017137032639281
 112    0.0049216022079525
 113    0.0052547735202636
 114    -0.036291833142798
 115     0.074750779394177
 116     0.039855155245357
 117    -0.0078811128168637
 118    -0.020057596969745
 119     0.045828663373733
 120    -0.017108507009129
 121    -0.041531964602185
 122      0.09076300969012
 123    -0.022147455874589
 124    -0.056373275331222
 125      0.13177404045581
 126    0.00022106436056741
 127    -0.0012348840380104
 128    -0.006532706851629
 129    -0.0028116465827554
 130    0.0029676980589769
 131     0.010792588438155
 132    -0.075072233745939
 133      0.15978421781132
 134     0.086272771797827
 135     0.010038317672124
 136     -0.05864593864526
 137    -0.029676749398916
 138     0.019710637447335
 139     -0.12027084969406
 140    -0.067035620913346
 141     0.027599572384605
 142     -0.17244408551825
 143    -0.089737052993459
 144    0.0042178155253708
 145    -0.0007341999820559
 146     0.011443499181521
 147    -0.0051946102071925
 148    -0.00015312659083717
 149    -0.011083099635247
 150     0.078112335247577
 151     -0.17559163037099
 152    -0.098471840314107
 153    -0.049836521287891
 154     0.017041034002375
 155    -0.021546411606296
 156     -0.10870621102324
 157     0.040639960416697
 158    -0.052911569039463
 159     -0.15002066305882
 160     0.057448744259596
 161     -0.07419251844583
 162    -0.0023815911270502
 163    -0.0090381680756935
 164    0.0055886298429197
 165    -0.0017137032639281
 166    0.0049216022079525
 167    0.0052547735202637
 168    -0.036291833142799
 169     0.074750779394179
 170     0.039855155245358
 171    0.0078811128168643
 172     0.020057596969745
 173     0.045828663373734
 174      0.01710850700913
 175     0.041531964602187
 176      0.09076300969012
 177     0.022147455874591
 178     0.056373275331224
 179      0.13177404045581
 180    0.00022106436056738
 181    0.0012348840380105
 182    0.0065327068516291
 183    -0.0028116465827555
 184     0.002967698058977
 Sym= A
 Ene=               2
 Spin= Alpha
 Occup=    1.00000
   1    -0.015414821542988
   2      0.04103144825989
   3     -0.22800115587658
   4     0.034046431691903
   5     0.052210074294271
   6    -0.098252597269417
   7    -0.029284455472163
   8    -0.046284511448195
   9      0.33129655323705
  10     0.097274058720144
  11      0.15509751518415
  12     0.026803918766292
  13     0.027829746540992
  14     0.045088763365354
  15    -0.036881181126048
  16     0.055509455303066
  17    -0.0091929003712528
  18     0.054175500983626
  19     0.028494794100027
  20    -0.018192970884473
  21     0.026952511603833
  22    -0.0072882634886002
  23     0.023009535441275
  24     0.019310042129025
  25    0.0012609795522177
  26    0.0002184749735713
  27    0.00016806902378404
  28    -0.0014495138760751
  29    -0.0011176436770148
  30    -0.001828397868836
  31    -0.00055741695858934
  32    -2.3149276255494e-16
  33    -2.0429478054796e-16
  34    -1.6285156178828e-16
  35      0.16095337377124
  36    -0.055945547071851
  37    3.8634034980379e-17
  38       0.1619837389328
  39    -0.056709797804283
  40    3.6369355598963e-17
  41    3.5736700460314e-18
  42    0.0053498068961307
  43    -0.0010281066612943
  44    -6.5182205923072e-18
  45    7.6533630112371e-20
  46     0.015414821542988
  47     -0.04103144825989
  48      0.22800115587658
  49    -0.034046431691903
  50    -0.052210074294271
  51    -0.098252597269417
  52    -0.029284455472163
  53     0.046284511448195
  54      0.33129655323705
  55     0.097274058720144
  56     -0.15509751518415
  57     0.026803918766292
  58     0.027829746540992
  59    -0.045088763365354
  60     0.036881181126048
  61     0.055509455303066
  62    -0.0091929003712529
  63    -0.054175500983626
  64    -0.028494794100027
  65     0.018192970884473
  66     0.026952511603833
  67    -0.0072882634886002
  68    -0.023009535441275
  69    -0.019310042129025
  70    -0.0012609795522178
  71    0.0002184749735713
  72    0.00016806902378403
  73    0.0014495138760751
  74    0.0011176436770148
  75    -0.001828397868836
  76    -0.00055741695858934
  77    0.0012482915870809
  78    -0.0097634737473839
  79     0.034153712171041
  80    -0.0032856460553276
  81     0.050990960256008
  82     0.030875895089031
  83    0.0079742935515684
  84       0.1012573625499
  85       0.0649254816796
  86    0.0080615181079393
  87      0.14896280601937
  88     0.090120385970256
  89     0.021606843588599
  90    -0.00088159470319305
  91    -0.0037987010430894
  92    -0.0037545651475853
  93    -0.0018681022588465
  94    0.0027725529856322
  95    -0.0055883038936892
  96     0.037561005216033
  97    -0.065504776561809
  98    -0.048534517677886
  99     0.074438140639762
 100    0.0068058971696214
 101     0.011590888718465
 102      0.14539124999306
 103     0.014737997161568
 104     0.024775702381615
 105      0.21243011242385
 106     0.023620898835935
 107     0.038871602156974
 108     0.001828935718046
 109    0.0060266574520014
 110    0.00078735182153627
 111    -0.0032565018901558
 112    0.0030485910838504
 113    0.0036334666495934
 114    -0.026384110173366
 115     0.067961077934651
 116     0.023808096789205
 117     0.038351618863945
 118    -0.021819198233418
 119     0.038445944230748
 120     0.072484409263244
 121    -0.052476303574643
 122     0.077717606743609
 123       0.1127066634124
 124    -0.072989394802707
 125       0.1135836102657
 126    -0.00059295006869258
 127    0.0002487604403568
 128    -0.0061314435125623
 129    -0.004573079639077
 130    -0.0011825113675705
 131    -0.0012482915870809
 132    0.0097634737473841
 133    -0.034153712171042
 134    0.0032856460553274
 135     0.050990960256008
 136     0.030875895089031
 137    -0.0079742935515683
 138       0.1012573625499
 139       0.0649254816796
 140    -0.0080615181079391
 141      0.14896280601937
 142     0.090120385970256
 143    -0.021606843588598
 144    0.00088159470319303
 145    -0.0037987010430894
 146    -0.0037545651475854
 147    0.0018681022588465
 148    -0.0027725529856322
 149    0.0055883038936892
 150    -0.037561005216033
 151     0.065504776561809
 152     0.048534517677886
 153     0.074438140639762
 154    0.0068058971696214
 155    -0.011590888718465
 156      0.14539124999306
 157     0.014737997161568
 158    -0.024775702381615
 159      0.21243011242385
 160     0.023620898835935
 161    -0.038871602156974
 162    -0.001828935718046
 163    0.0060266574520014
 164    0.00078735182153627
 165    0.0032565018901558
 166    -0.0030485910838504
 167    -0.0036334666495934
 168     0.026384110173366
 169    -0.067961077934651
 170    -0.023808096789205
 171     0.038351618863945
 172    -0.021819198233418
 173    -0.038445944230749
 174     0.072484409263244
 175    -0.052476303574643
 176    -0.077717606743609
 177       0.1127066634124
 178    -0.072989394802707
 179      -0.1135836102657
 180    0.00059295006869259
 181    0.00024876044035679
 182    -0.0061314435125623
 183     0.004573079639077
 184    0.0011825113675705
 Sym= A
 Ene=               3
 Spin= Alpha
 Occup=    1.00000
   1     0.014372562402394
   2    -0.039230749470034
   3      0.20789901614422
   4     0.029162176154496
   5    -0.0039030570289022
   6     0.094077720838957
   7    0.0054245884469617
   8     0.018850263665283
   9     -0.31461680504622
  10    -0.017902421023618
  11    -0.063753604076361
  12    -0.067578328102501
  13    -0.0010979607808425
  14    -0.010868791830511
  15     0.018296961801494
  16    0.0021681132673124
  17    -0.013849762578991
  18     -0.02388550341596
  19    0.0038682535712375
  20     0.011022774276837
  21    0.0039561144148979
  22    -0.0084655868357306
  23    -0.013184627591692
  24    0.0026548404708084
  25    0.00055993651273958
  26    -8.6419282014933e-05
  27    -0.00060445126513519
  28    -0.00062146217877612
  29    8.555326396173e-05
  30    -0.00056323386838255
  31    5.0229995044869e-05
  32      0.34952583516444
  33      0.19002487575197
  34      0.10635522556289
  35    2.186333514693e-17
  36    -1.100578251636e-17
  37    -0.029265981912155
  38    4.1568118407306e-17
  39    -1.1714123942419e-17
  40    -0.031965243032556
  41    -0.002803857280161
  42    1.1732730998112e-18
  43    1.7401079058332e-19
  44     0.004597434106494
  45    9.9616986398473e-05
  46     0.014372562402394
  47    -0.039230749470034
  48      0.20789901614422
  49     0.029162176154496
  50    -0.0039030570289022
  51    -0.094077720838957
  52    -0.0054245884469618
  53     0.018850263665283
  54      0.31461680504622
  55     0.017902421023618
  56    -0.063753604076362
  57     0.067578328102501
  58    0.0010979607808425
  59    -0.010868791830512
  60     0.018296961801494
  61    -0.0021681132673124
  62     0.013849762578991
  63     -0.02388550341596
  64    0.0038682535712375
  65     0.011022774276837
  66    -0.0039561144148979
  67    0.0084655868357306
  68    -0.013184627591692
  69    0.0026548404708084
  70    0.00055993651273958
  71    8.6419282014934e-05
  72    0.00060445126513519
  73    -0.00062146217877612
  74    8.555326396173e-05
  75    0.00056323386838255
  76    -5.022999504487e-05
  77    0.0035425484614259
  78    -0.022712686455996
  79     0.029174967713078
  80     0.020058772763041
  81    -0.069103733542256
  82    0.0015491955190441
  83    -0.021453347846204
  84     -0.13245498158575
  85    -0.0012718780681042
  86    -0.034718721569964
  87     -0.19697406399865
  88    0.00020443231987223
  89    -0.053042351773988
  90     0.002891769734867
  91    0.0060830628186427
  92    -0.0025343726293902
  93    -0.00052050587552527
  94    -0.0038444801816685
  95    -0.0010058581177034
  96    0.0083463316686165
  97    -0.031415587522179
  98    -0.016294859841968
  99    -0.045080403805544
 100    -0.014407891581673
 101    -0.029889301825543
 102    -0.082038271920913
 103    -0.032593591611772
 104    -0.065255551448396
 105       -0.126723112222
 106    -0.045783004727839
 107    -0.093168662137936
 108    -0.004071100860832
 109    -0.0018093202618513
 110    -0.003039272574805
 111    0.0030293461227417
 112    -0.0013443646143154
 113    0.0013240125080168
 114    -0.0077701352994346
 115    0.0034084961879006
 116    0.00037679197327747
 117    -0.055833368704811
 118    0.0022065831747278
 119    -0.012628520307504
 120     -0.10576533893922
 121     0.011681838801007
 122    -0.026718512507983
 123     -0.15768683646692
 124     0.015333504606609
 125    -0.039349306506368
 126    -0.00091951477813345
 127    -0.0016337837204815
 128    0.0010312977271362
 129    0.0009983955911049
 130    0.0052876245447963
 131    0.0035425484614259
 132    -0.022712686455996
 133     0.029174967713078
 134     0.020058772763041
 135     0.069103733542256
 136    -0.001549195519044
 137    -0.021453347846204
 138      0.13245498158575
 139    0.0012718780681043
 140    -0.034718721569964
 141      0.19697406399865
 142    -0.00020443231987202
 143    -0.053042351773988
 144     0.002891769734867
 145    -0.0060830628186427
 146    0.0025343726293902
 147    -0.00052050587552526
 148    -0.0038444801816686
 149    -0.0010058581177035
 150    0.0083463316686167
 151    -0.031415587522179
 152    -0.016294859841968
 153     0.045080403805544
 154     0.014407891581673
 155    -0.029889301825543
 156     0.082038271920913
 157     0.032593591611772
 158    -0.065255551448396
 159        0.126723112222
 160     0.045783004727839
 161    -0.093168662137936
 162    -0.004071100860832
 163    0.0018093202618513
 164     0.003039272574805
 165    0.0030293461227417
 166    -0.0013443646143154
 167    0.0013240125080168
 168    -0.0077701352994347
 169    0.0034084961879006
 170    0.00037679197327752
 171     0.055833368704811
 172    -0.0022065831747278
 173    -0.012628520307504
 174      0.10576533893922
 175    -0.011681838801007
 176    -0.026718512507983
 177      0.15768683646692
 178    -0.015333504606609
 179    -0.039349306506368
 180    -0.00091951477813345
 181    0.0016337837204815
 182    -0.0010312977271362
 183    0.0009983955911049
 184    0.0052876245447963
 Sym= A
 Ene=               4
 Spin= Alpha
 Occup=    1.00000
   1    0.0063954041657095
   2    -0.017607851880508
   3     0.091634091088075
   4    -0.012512214057356
   5    0.0038783084846904