[Molden Format]
made by pyscf v[2.1.1]
[Atoms] (AU)
Fe   1   26     3.17068844873907     0.00098706064664     0.12237737881307
O   2   8     0.00000000000000     0.00000000000000    -0.89004350580623
Fe   3   26    -3.17068844873907    -0.00098706064664     0.12237737881307
Cl   4   17     3.53383895113107    -2.07485195383062     3.76228752659000
Cl   5   17     5.54152580550813    -1.85590924879884    -2.78672786652360
Cl   6   17     4.48169216485503     3.92976278472880    -0.95330240907949
Cl   7   17    -3.53383895113107     2.07485195383062     3.76228752659000
Cl   8   17    -5.54152580550813     1.85590924879884    -2.78672786652360
Cl   9   17    -4.48169216485503    -3.92976278472880    -0.95330240907949
[GTO]
1 0
 s    6 1.00
          60923.640643  0.0017552243692958
          9147.8893982   0.013449023284001
          2081.3505927   0.066678874640978
          587.55977067    0.23176348548844
           191.0904399    0.46945550248188
          65.732730112     0.3596824938678
 s    3 1.00
          127.25891928   -0.10723431835929
           14.83091301    0.62971616328466
          6.0653307408    0.44472317896179
 s    3 1.00
           10.44994371   -0.21694289195548
          1.7245228003    0.69457867408393
         0.71772177325    0.43298308896347
 s    1 1.00
        0.091449828308                   1
 s    1 1.00
        0.033706691021                   1
 p    5 1.00
          773.43750995  0.0091440529992506
          182.15149714   0.067887577136571
          57.547272758    0.26167978878504
          20.614988935    0.51088040113251
           7.634855789    0.33235475570224
 p    3 1.00
           3.871932799    0.33193859098144
          1.4924724132     0.5553666555499
         0.56061284958    0.23106034201617
 p    1 1.00
              0.134915                   1
 d    4 1.00
          38.968133419   0.033335938558743
          10.800067078    0.17766212505983
          3.6136457999      0.441281781625
          1.2129967888    0.57089200490673
 d    1 1.00
          0.3652439317                   1
 f    1 1.00
                 1.598                   1

2 0
 s    5 1.00
          2266.1767785  -0.0053893503921743
          340.87010191   -0.04023472138896
          77.363135167   -0.18008184205526
           21.47964494   -0.46828857657651
          6.6589433124   -0.44692617160187
 s    1 1.00
         0.80975975668                   1
 s    1 1.00
         0.25530772234                   1
 p    3 1.00
          17.721504317   0.062630248763161
           3.863550544    0.33331138482352
          1.0480920883    0.74148638308122
 p    1 1.00
         0.27641544411                   1
 d    1 1.00
                   1.2                   1

3 0
 s    6 1.00
          60923.640643  0.0017552243692958
          9147.8893982   0.013449023284001
          2081.3505927   0.066678874640978
          587.55977067    0.23176348548844
           191.0904399    0.46945550248188
          65.732730112     0.3596824938678
 s    3 1.00
          127.25891928   -0.10723431835929
           14.83091301    0.62971616328466
          6.0653307408    0.44472317896179
 s    3 1.00
           10.44994371   -0.21694289195548
          1.7245228003    0.69457867408393
         0.71772177325    0.43298308896347
 s    1 1.00
        0.091449828308                   1
 s    1 1.00
        0.033706691021                   1
 p    5 1.00
          773.43750995  0.0091440529992506
          182.15149714   0.067887577136571
          57.547272758    0.26167978878504
          20.614988935    0.51088040113251
           7.634855789    0.33235475570224
 p    3 1.00
           3.871932799    0.33193859098144
          1.4924724132     0.5553666555499
         0.56061284958    0.23106034201617
 p    1 1.00
              0.134915                   1
 d    4 1.00
          38.968133419   0.033335938558743
          10.800067078    0.17766212505983
          3.6136457999      0.441281781625
          1.2129967888    0.57089200490673
 d    1 1.00
          0.3652439317                   1
 f    1 1.00
                 1.598                   1

4 0
 s    5 1.00
          10449.827566  0.0054265953789407
          1571.7365221   0.040626378128836
          357.12065523    0.18359747852877
          100.25185935    0.47438948768198
          30.812727554    0.43735181104122
 s    3 1.00
          51.923789434  -0.092754154848099
          5.7045760975    0.56380825544207
          2.3508376809    0.50367044629712
 s    1 1.00
         0.44605124672                   1
 s    1 1.00
          0.1684885619                   1
 p    5 1.00
          307.66790569  -0.0088797025588865
          72.102015515  -0.064284071721237
          22.532680262   -0.24288739736006
          7.8991765444   -0.48340836369878
          2.8767268321   -0.38952563875509
 p    1 1.00
         0.77459363955                   1
 p    1 1.00
         0.21037699698                   1
 d    1 1.00
                  0.65                   1

5 0
 s    5 1.00
          10449.827566  0.0054265953789407
          1571.7365221   0.040626378128836
          357.12065523    0.18359747852877
          100.25185935    0.47438948768198
          30.812727554    0.43735181104122
 s    3 1.00
          51.923789434  -0.092754154848099
          5.7045760975    0.56380825544207
          2.3508376809    0.50367044629712
 s    1 1.00
         0.44605124672                   1
 s    1 1.00
          0.1684885619                   1
 p    5 1.00
          307.66790569  -0.0088797025588865
          72.102015515  -0.064284071721237
          22.532680262   -0.24288739736006
          7.8991765444   -0.48340836369878
          2.8767268321   -0.38952563875509
 p    1 1.00
         0.77459363955                   1
 p    1 1.00
         0.21037699698                   1
 d    1 1.00
                  0.65                   1

6 0
 s    5 1.00
          10449.827566  0.0054265953789407
          1571.7365221   0.040626378128836
          357.12065523    0.18359747852877
          100.25185935    0.47438948768198
          30.812727554    0.43735181104122
 s    3 1.00
          51.923789434  -0.092754154848099
          5.7045760975    0.56380825544207
          2.3508376809    0.50367044629712
 s    1 1.00
         0.44605124672                   1
 s    1 1.00
          0.1684885619                   1
 p    5 1.00
          307.66790569  -0.0088797025588865
          72.102015515  -0.064284071721237
          22.532680262   -0.24288739736006
          7.8991765444   -0.48340836369878
          2.8767268321   -0.38952563875509
 p    1 1.00
         0.77459363955                   1
 p    1 1.00
         0.21037699698                   1
 d    1 1.00
                  0.65                   1

7 0
 s    5 1.00
          10449.827566  0.0054265953789407
          1571.7365221   0.040626378128836
          357.12065523    0.18359747852877
          100.25185935    0.47438948768198
          30.812727554    0.43735181104122
 s    3 1.00
          51.923789434  -0.092754154848099
          5.7045760975    0.56380825544207
          2.3508376809    0.50367044629712
 s    1 1.00
         0.44605124672                   1
 s    1 1.00
          0.1684885619                   1
 p    5 1.00
          307.66790569  -0.0088797025588865
          72.102015515  -0.064284071721237
          22.532680262   -0.24288739736006
          7.8991765444   -0.48340836369878
          2.8767268321   -0.38952563875509
 p    1 1.00
         0.77459363955                   1
 p    1 1.00
         0.21037699698                   1
 d    1 1.00
                  0.65                   1

8 0
 s    5 1.00
          10449.827566  0.0054265953789407
          1571.7365221   0.040626378128836
          357.12065523    0.18359747852877
          100.25185935    0.47438948768198
          30.812727554    0.43735181104122
 s    3 1.00
          51.923789434  -0.092754154848099
          5.7045760975    0.56380825544207
          2.3508376809    0.50367044629712
 s    1 1.00
         0.44605124672                   1
 s    1 1.00
          0.1684885619                   1
 p    5 1.00
          307.66790569  -0.0088797025588865
          72.102015515  -0.064284071721237
          22.532680262   -0.24288739736006
          7.8991765444   -0.48340836369878
          2.8767268321   -0.38952563875509
 p    1 1.00
         0.77459363955                   1
 p    1 1.00
         0.21037699698                   1
 d    1 1.00
                  0.65                   1

9 0
 s    5 1.00
          10449.827566  0.0054265953789407
          1571.7365221   0.040626378128836
          357.12065523    0.18359747852877
          100.25185935    0.47438948768198
          30.812727554    0.43735181104122
 s    3 1.00
          51.923789434  -0.092754154848099
          5.7045760975    0.56380825544207
          2.3508376809    0.50367044629712
 s    1 1.00
         0.44605124672                   1
 s    1 1.00
          0.1684885619                   1
 p    5 1.00
          307.66790569  -0.0088797025588865
          72.102015515  -0.064284071721237
          22.532680262   -0.24288739736006
          7.8991765444   -0.48340836369878
          2.8767268321   -0.38952563875509
 p    1 1.00
         0.77459363955                   1
 p    1 1.00
         0.21037699698                   1
 d    1 1.00
                  0.65                   1

[5d]
[7f]
[9g]

[MO]
 Sym= A
 Ene=               0
 Spin= Alpha
 Occup=    1.00000
   1    0.00090114762853966
   2    -0.0021739138064552
   3     0.014322765865966
   4    -0.0021384687561582
   5    -0.017239143542275
   6    0.0075228534251522
   7    0.0045793620865984
   8    0.0047432186624805
   9      -0.0255989529299
  10    -0.015234757803368
  11    -0.016047258899899
  12    -0.0040415736727382
  13    -0.0044318860858151
  14    0.0043888510244556
  15    -0.0023073842080976
  16    0.0010849822546192
  17    0.0020139281789504
  18    0.0084423398833483
  19    -0.0045008107860315
  20    -0.0012607892861468
  21    -0.0027796855770188
  22    0.00056509526426726
  23    0.0032615387358777
  24    -0.0033871723415023
  25    -8.8599819024442e-06
  26    0.00021154426096571
  27    8.4830468375494e-06
  28    -5.6459084202068e-05
  29    0.00013801300797868
  30    -0.00013251361070813
  31    0.00013354842614204
  32    -0.010332572583198
  33    -0.035491936716741
  34    -0.043196390805066
  35     0.042142760492703
  36     0.012540653039108
  37     0.017461091287871
  38     0.049963921283096
  39    0.0082392843496763
  40    0.0059804983532762
  41    0.0017576761785835
  42    0.0019108366954487
  43    0.00029327376837353
  44    -0.0026380504001277
  45    -0.00016915131096657
  46     -0.01779766752108
  47     0.046714812994493
  48     -0.26461815255215
  49      -0.2542213771761
  50     0.078648360425473
  51    -0.026922263017511
  52    -0.0089046319946422
  53    -0.017926726479432
  54     0.089480691599451
  55     0.029809943814723
  56     0.061195166505319
  57     0.097979976118434
  58     0.021906813851937
  59     0.029289366560664
  60    -0.0001580100298432
  61     -0.02935342406607
  62    0.00030334498141473
  63     0.017423487028895
  64    0.0033745458841082
  65    -0.0018215072309385
  66    -0.027710065258485
  67    0.00098239100566159
  68     0.020609176341547
  69    0.0016156303987392
  70    -0.0016187875157244
  71    0.0011183606861848
  72    -0.002125840734192
  73    0.00057318123213507
  74    -0.00085511705252514
  75    -0.0019220630412484
  76    -0.0012300818759714
  77    -0.00027612335219161
  78    0.0019175649968889
  79    -0.0034857324574424
  80    -0.0044064282185737
  81    -0.0036045332477391
  82    -0.0039623663010261
  83    -0.00097014214739945
  84    -0.0076984767181237
  85    -0.0081026439464765
  86    -0.0014708696573756
  87    -0.0087452479749155
  88    -0.012670593543802
  89    -0.0015848547395845
  90    0.00011066036484121
  91    0.0003392775035781
  92    0.00050702193902496
  93    0.00031777612865256
  94    -0.00028948421025932
  95    0.00068988601904036
  96    -0.0047110654932267
  97    0.0078421474898865
  98     0.012544727905084
  99    -0.0072489773883667
 100    -0.0011882505662426
 101    -0.00093447590810306
 102    -0.014665717866214
 103    -0.0024957894626951
 104    -0.0017776804214453
 105     -0.02262488659769
 106    -0.0017525097682282
 107    -0.0012064754818333
 108    -0.00018857357813141
 109    -0.00091185095530511
 110    0.00010488958837537
 111    0.00053800676587793
 112    -0.00053844889116905
 113    -0.00084693993437683
 114    0.0059600438956449
 115    -0.013701875251662
 116    -0.0039281922022412
 117    -0.0015427865157574
 118    0.0039353227474401
 119    -0.0048615752896285
 120    -0.0031665456931983
 121     0.009158205198817
 122    -0.0097537360368161
 123    -0.003972559120039
 124     0.010908079581794
 125    -0.015060986444128
 126    -2.4899830094217e-05
 127    0.00010567859104994
 128    0.00092565450381396
 129    0.00067850402609814
 130    0.00011863016589245
 131    -0.0057772956462017
 132     0.039024137398179
 133    -0.069152283565973
 134    -0.045927668459376
 135      0.01808455171328
 136     0.017163751688852
 137     0.028627998970092
 138     0.036735002330386
 139     0.032050810977674
 140     0.055077613184711
 141     0.048952127336976
 142     0.042198393589664
 143     0.070637483021962
 144    -0.0063082957139948
 145    -0.0010612736590016
 146    -0.0071075806143824
 147    0.0021944221054511
 148    -0.00050704918419457
 149    -0.017295689136999
 150      0.12087012921178
 151      -0.2602178305511
 152     -0.13729375673972
 153    -0.037328968916873
 154     0.044312593333626
 155     -0.05586798137438
 156    -0.083152101959561
 157     0.098300905086858
 158     -0.12191560159158
 159     -0.11059594554133
 160      0.12375900219832
 161     -0.15961193733625
 162    -0.0057662846932257
 163    -0.014251568332107
 164     0.013020041280042
 165    -0.0003854689464241
 166    0.0093259267505834
 167    -0.015663764936559
 168      0.10914664797126
 169     -0.23043135703827
 170     -0.12422667540639
 171    -0.010590368791553
 172     -0.07412565496617
 173    -0.015744239926682
 174    -0.024479091184067
 175     -0.16097354865866
 176    -0.031556732810463
 177    -0.034005643703487
 178     -0.20938021739712
 179    -0.046938066507983
 180    0.0075532479587145
 181    -0.0023347938593636
 182    -0.0083535875915867
 183     0.014267675783394
 184    -0.0071626365446894
 Sym= A
 Ene=               1
 Spin= Alpha
 Occup=    1.00000
   1    0.0066576356241314
   2    -0.017974228777856
   3     0.097070358169258
   4    -0.0011464015000786
   5    -0.0017626196616193
   6     0.027743151921548
   7    -0.026169326860908
   8    -0.014998199835307
   9    -0.093447053896261
  10     0.087143310995337
  11     0.049636355399243
  12     0.002453292787389
  13     0.022709996739188
  14     0.018028068695381
  15     0.011221245721038
  16     0.010307841545586
  17    -0.016789169112672
  18    -0.041570848114609
  19     0.035937648973321
  20    0.0066609599554608
  21     0.010246271794377
  22     -0.01081460902047
  23    -0.024609937077261
  24     0.025720711985562
  25    5.7684044182251e-05
  26    -0.0010988347643615
  27    -0.00025708505555405
  28    0.00042357581209866
  29    -0.0010043819033533
  30    0.00049970614179104
  31    -0.00081539164709943
  32     0.024537585494506
  33    -0.0027660890430669
  34     -0.01287387384348
  35    -0.043745121685602
  36    -0.087727467267768
  37    -0.076071896086061
  38    -0.029381553763883
  39     -0.07085827911145
  40    -0.062457525829892
  41    -0.0018283873486341
  42    -0.00010483526760832
  43    -0.002068374192014
  44    -0.00081559335923063
  45    0.00093655448639558
  46    -0.0093532360839008
  47     0.024752770545448
  48     -0.13823456273819
  49    -0.080682895250032
  50     0.027905338185622
  51     0.012010397469829
  52     0.044479139477616
  53      0.04311302605267
  54    -0.040938045969158
  55     -0.14954651795275
  56     -0.14477902877867
  57    0.0057308040372421
  58      -0.1020380466721
  59     -0.10555723910956
  60     -0.03754051207581
  61    -0.0029867885152338
  62    -0.022018995381518
  63    0.0016027386689829
  64    0.0084315424275533
  65    -0.030859167270891
  66    0.0010114041927838
  67    -0.018372030471374
  68     0.002006534515283
  69    0.0092640627184155
  70    -0.00043177167893251
  71    0.00079826835308288
  72    -0.0017906995207445
  73    0.00093024938677947
  74    0.00018633025314777
  75    0.00043034870387518
  76    8.6072279702862e-05
  77    0.0022947054799116
  78    -0.015888758802354
  79      0.03389145719914
  80     0.015015354406055
  81    -0.011758569606455
  82     0.022498185268201
  83    -0.0016833625699689
  84    -0.024605602142644
  85     0.044723279250173
  86    -0.0035155282650996
  87    -0.035170377369555
  88     0.064628678060922
  89    -0.0026049996609311
  90    -3.7882343206873e-05
  91    0.0012768148316427
  92    -0.0027222691004157
  93    -0.0018662462336766
  94    -0.00022498967018085
  95    -0.0055275865889459
  96     0.039440587694668
  97    -0.093049041461493
  98    -0.053709022539687
  99     0.011023756287699
 100    -0.0049889781596738
 101    -0.021575968346873
 102     0.028620395020986
 103    -0.014525127755337
 104    -0.050435074138486
 105     0.036412752566472
 106    -0.020242543885226
 107    -0.072613374142961
 108    -0.0031763349634615
 109    0.0042032860994204
 110    -0.0030943036733492
 111    -0.00055460102083695
 112    0.0017969642788579
 113    0.0058392230002332
 114    -0.040488294011508
 115      0.08416801140986
 116     0.046746502381363
 117    -0.024483144570437
 118    -0.020035773366597
 119     0.018900110331543
 120     -0.05037924569959
 121    -0.042513690393088
 122     0.037942740602825
 123    -0.071527214579122
 124     -0.06053023787566
 125     0.055829240020707
 126    -0.00077386581613979
 127    -0.0015103807788145
 128    -0.0041773442071777
 129    -0.0035828177760486
 130    0.0032526304125059
 131    -0.020332442081603
 132      0.14327601180099
 133     -0.32075780998966
 134     -0.16481960866336
 135     -0.01217941073789
 136     0.036613038861445
 137     0.086020181773837
 138    -0.028718841614569
 139     0.085187215945687
 140      0.19466627610479
 141    -0.037890729898386
 142       0.1126031971139
 143       0.2586083506792
 144    -0.015035925306311
 145    0.0026757422764721
 146     -0.01719269883723
 147    0.0047968494825683
 148    0.0015526366918078
 149    -0.001190258127532
 150    0.0071592599903812
 151    -0.0022384270525081
 152    -0.012733018730392
 153    -0.0062378606841521
 154    -0.029110462292266
 155    -0.027865264557113
 156    -0.008848571999617
 157     -0.06289071013989
 158    -0.052530104907441
 159    -0.016098330240413
 160    -0.084011018302739
 161    -0.073892375834087
 162    -0.0047212456869738
 163    -0.0032672419426427
 164    -0.0010294285706979
 165    -0.0024291308302037
 166    -0.0011077906663464
 167    0.0090520068505315
 168    -0.065018651150223
 169      0.15768088128116
 170     0.069018363573421
 171     0.015661612616727
 172     0.037429411052369
 173     -0.01086594210241
 174     0.037891436419476
 175     0.093311089740617
 176    -0.016937395389833
 177     0.047281586649732
 178       0.1226158228812
 179    -0.025177228297634
 180    -0.0042578259828036
 181    0.0010881684325297
 182    0.0022901721863669
 183    -0.0057174207014049
 184    0.0042829163375848
 Sym= A
 Ene=               2
 Spin= Alpha
 Occup=    1.00000
   1    0.0046155368617701
   2    -0.012277491944604
   3      0.06802901064771
   4     0.021944317234127
   5    -0.0040245875929074
   6     0.032436746652206
   7     0.010759286501543
   8    -0.0039454893659533
   9     -0.10860094026627
  10    -0.035852375509553
  11     0.012864661405406
  12    -0.028102307248232
  13    -0.0052073086512986
  14    -0.007303268551097
  15      0.01653998863244
  16     0.043689662049991
  17    -0.011281938993251
  18     0.010369577914295
  19      -0.0163496190952
  20      0.01240024873976
  21     0.023947321801632
  22    -0.0079066471728349
  23    0.0014013977320615
  24    -0.011035874272909
  25    0.00067498111675127
  26    -0.00083031905144637
  27    -0.00038986727815374
  28    -0.0012034479529887
  29    0.00024998030522822
  30    0.00025521526683661
  31    0.00073129681300331
  32     0.083701558865862
  33     -0.21233647522552
  34      -0.1666865854731
  35      0.20699883503085
  36     0.069818001800692
  37      -0.1347177861373
  38      0.16489191908684
  39     0.060009029164469
  40     -0.11999685314826
  41    -0.00063448983446387
  42    0.0056172633822134
  43    0.0013678209046307
  44    -0.0054164723545008
  45    -0.00019478673162837
  46    0.0036246126168619
  47    -0.010877164401344
  48     0.048458450400703
  49     -0.05314152049439
  50      0.02058240021047
  51    0.0035802532101127
  52     -0.01073340365207
  53     0.015007874578281
  54    -0.012672568094173
  55      0.03594277705899
  56    -0.050405081787663
  57     -0.07743460866408
  58     0.028156850526569
  59    -0.025196349980127
  60     0.044773183036578
  61     0.047666771669354
  62    -0.010745531033844
  63    -0.077231212268708
  64     0.003569357621755
  65     0.023141617599825
  66     0.025541867522449
  67    -0.0079051531416135
  68    -0.038491266839073
  69    0.00074664769080571
  70    -0.0014333537625809
  71    0.0015518547933503
  72    0.00020703072331156
  73    0.0020099535166409
  74    0.0003291696053929
  75    -0.0032937639776593
  76    0.00069707595008889
  77     0.003514375447983
  78    -0.024467143640926
  79     0.052519690636793
  80     0.026339221377156
  81     -0.02274834897347
  82    0.0030595158901408
  83    -0.016056779987622
  84    -0.045831788305165
  85    0.0071201306455188
  86    -0.033628866362582
  87     -0.06461209562218
  88    0.0096263929150428
  89    -0.047866394644649
  90    0.0029192631612646
  91    0.0010957481082756
  92    -0.0027379779269443
  93    -0.0012604542650069
  94    -0.00075843554297931
  95    -0.0010627827188997
  96    0.0079539230263239
  97    -0.023287284463322
  98    -0.010045970005882
  99    -0.012708171043376
 100    -0.011896583362614
 101    -0.0079842804341494
 102    -0.022395718562129
 103    -0.025923030758037
 104    -0.019051167730198
 105    -0.036476281595057
 106    -0.036376743408369
 107    -0.025867437025723
 108    -0.0013931979992499
 109    -0.00065872670598119
 110    -0.0018375037691704
 111    0.0023781207740503
 112    -0.00053519559584014
 113    -0.002218324018824
 114     0.015915983531498
 115    -0.038003006953453
 116    -0.022030883293878
 117    -0.011650262586213
 118     0.013405331758543
 119    -0.0035471336286329
 120     -0.02142072288688
 121     0.031370114376619
 122    -0.0082039017264957
 123    -0.033272987463558
 124     0.044865502984417
 125    -0.012787498843259
 126    0.00020973126121277
 127    0.00027596769165938
 128    0.0018449443094148
 129    0.0029165504335695
 130    0.0019866895166471
 131    -6.9195684542904e-05
 132    0.0010655234928945
 133    -0.007079815177664
 134    -0.0042920325378124
 135    -0.0060496183658352
 136    0.0072347025813072
 137    -0.0083101487243311
 138    -0.014859022708507
 139     0.016509013338948
 140    -0.013792628606813
 141    -0.016180987712552
 142     0.020759466303154
 143    -0.021070702200289
 144    0.0006942782649003
 145    0.0015659968118897
 146    -0.0013689810294545
 147    0.00029033895717805
 148    0.00073385819124685
 149    0.0063363860270661
 150    -0.044711691967697
 151      0.10338247453898
 152     0.041769305826415
 153     0.014851172721564
 154    -0.012179517432346
 155     0.023833887893297
 156     0.033714555016096
 157    -0.028564354946087
 158     0.053817876612357
 159     0.044339532222192
 160    -0.035232300314395
 161     0.069086006830001
 162    0.0020422933891844
 163    0.0041225019694605
 164    -0.0030584179810225
 165    0.00021661584455133
 166    -0.0021544523233825
 167    6.8565766878718e-05
 168    -0.00019562910469212
 169    -0.00051604952106121
 170    -0.0060846385532096
 171    -0.0061175964576626
 172    0.0067926752117962
 173    -0.0069197099494902
 174    -0.015050796374732
 175     0.012647899374016
 176    -0.014581201233608
 177    -0.016149680594641
 178     0.015762956365273
 179    -0.019494612392711
 180    0.00029669654519671
 181    -0.0005601316702386
 182    -0.0010764053250215
 183    -0.0012276522293315
 184    -0.0021783603210669
 Sym= A
 Ene=               3
 Spin= Alpha
 Occup=    1.00000
   1    0.00040830723178733
   2    -0.0012218257560983
   3    0.0054245620008777
   4    -0.0057552573578947
   5    0.00076775853505232
   6    0.0018905682093888
   7    -6.4662084650813e-05
   8    -0.00062180820023674
   9    -0.0060253576920475
  10    0.00020753946372227
  11    0.0019826187660274
  12    0.0048997774064697
  13    -0.00031086924425237
  14    -0.0063647826532275
  15    0.00042176261166165
  16    -0.00030095507659302
  17    0.00054803607700744
  18    -0.0010825829794993
  19    -2.3391570703055e-05
  20    0.00094970247828701
  21    0.0015877435555247
  22    1.5200815777023e-05
  23    -0.00041907218613605
  24    -0.00019248201895223
  25    4.2647000936274e-05
  26    -0.00031226150810485
  27    -3.4045187531781e-05
  28    -8.5555869189127e-05
  29    6.8556118098811e-06
  30    0.00022396595838534
  31    1.1360754601334e-05
  32    0.0015225034735141
  33    0.0041053729593369
  34    0.0021216678339426
  35    -0.0066125530429339
  36    0.00053776048711318
  37    -0.039284019577003
  38    -0.0071098052778684
  39    0.00034224216452272
  40    -0.038038940967122
  41    -0.00014233599025731
  42    -0.00094321218592695
  43    0.00044363296573804
  44    -2.0892307280685e-05
  45    0.00015436091283221
  46    0.0014249246720181
  47    -0.0042362128337565
  48     0.018965525021935
  49    -0.035399783825523
  50     0.014055267532967
  51    -0.0010717140869179
  52    -0.00042200260522535
  53    -0.006430669605381
  54    0.0033635631238623
  55    0.0014271600667052
  56     0.020019411637912
  57    -0.0034850920498269
  58    -0.0003643992665726
  59    -0.026446211998247
  60      0.19173342207745
  61      0.40669943451972
  62      0.61256422746243
  63      0.39032716411496
  64       0.1972435182238
  65     0.050864904066746
  66      0.10984359272936
  67      0.16501626926923
  68      0.10654184297642
  69     0.053266975756113
  70    0.00092189322214053
  71    0.00083680040321242
  72    0.0011083254852234
  73    -0.00012777251470563
  74    -0.0005760703718613
  75    -0.00076442325245162
  76    -0.00025204592163549
  77    0.00021990125547219
  78    -0.0014813892580126
  79    0.0027438182370042
  80    0.0013153196225142
  81    -0.0016759709623321
  82    0.00063818395775406
  83    -0.00090289562190859
  84    -0.003070097006506
  85    0.0011161881817944
  86    -0.0015779924794442
  87     -0.00396340188946
  88    0.0024237786817328
  89    -0.0033296937327644
  90    0.00010441864857469
  91    -0.00028317528334836
  92    2.7272990858697e-05
  93    -0.00018512581823317
  94    0.00019531200537517
  95    -4.6772404809107e-05
  96    0.00030642046013636
  97    -0.0001706278413719
  98    -0.0021468273849749
  99    0.00059840661338878
 100    -4.0067539897317e-05
 101    0.00052300250071575
 102    0.0010324942205045
 103    -2.5931592778132e-05
 104    0.00092095389362824
 105    0.0021377640581532
 106    -0.00087148946680698
 107    0.00060744027215053
 108    -6.2732027054228e-06
 109    0.00010306218051759
 110    -3.3910542472568e-05
 111    4.916844790265e-05
 112     1.32320827685e-05
 113    3.5714277335619e-05
 114    -0.00024625091781249
 115    0.00067734775608686
 116    -0.00080172574755597
 117    -0.00016003153210151
 118    -0.00018293524237299
 119    0.00064250145669834
 120    -0.00031656919671385
 121    -0.00033907521628813
 122    0.0010840606746048
 123    -0.00033121118958293
 124    -0.00014150490680376
 125    0.0019710260899971
 126    4.7936868986412e-05
 127    0.00012318481884102
 128    2.9668827576545e-05
 129    -1.3362103487488e-05
 130    -8.9860057371101e-05
 131    -0.0020234024076703
 132     0.013272050035564
 133    -0.016817024159111
 134    -0.011668369987244
 135      -0.0159508853498
 136    0.0080314067708105
 137     0.018019644511901
 138    -0.027096343368558
 139     0.013916166974504
 140     0.031163161822125
 141    -0.044508615291139
 142     0.022816055570654
 143        0.051611898795
 144    -0.00012739181752788
 145    -0.0016725742209439
 146    0.0001374711048742
 147    0.0011299298552109
 148    -0.0010692800811653
 149    0.00067440529935919
 150    -0.0044470114159723
 151    0.0074699375696664
 152    -0.00088751537579324
 153      0.01598426731469
 154     0.022062239612635
 155      0.01122259454292
 156      0.02709111325276
 157     0.037145400388231
 158     0.018894902778216
 159     0.043821548721713
 160     0.063107436926446
 161     0.031652321331887
 162    -0.00041878914349307
 163    -0.0012254547263956
 164    -0.0017146016863976
 165    -0.0020554851397264
 166    -0.0013350906267281
 167    5.6741494658202e-05
 168    -0.00037019705378938
 169    0.0014506467275586
 170    -0.0020108542908394
 171     0.010005435194567
 172    -0.0089000479624586
 173     0.025105812977582
 174     0.016736453794479
 175    -0.015092842259502
 176     0.042123896678635
 177     0.028216091632578
 178    -0.025832408871675
 179     0.071350796620024
 180    -0.0012180946161449
 181    -0.001344404543868
 182    -0.0019109885276403
 183    -0.0016510401599311
 184    -0.00044855806849598
 Sym= A
 Ene=               4
 Spin= Alpha
 Occup=    1.00000