[Molden Format]
made by pyscf v[2.1.1]
[Atoms] (AU)
Fe   1   26     3.17068844873907     0.00098706064664     0.12237737881307
O   2   8     0.00000000000000     0.00000000000000    -0.89004350580623
Fe   3   26    -3.17068844873907    -0.00098706064664     0.12237737881307
Cl   4   17     3.53383895113107    -2.07485195383062     3.76228752659000
Cl   5   17     5.54152580550813    -1.85590924879884    -2.78672786652360
Cl   6   17     4.48169216485503     3.92976278472880    -0.95330240907949
Cl   7   17    -3.53383895113107     2.07485195383062     3.76228752659000
Cl   8   17    -5.54152580550813     1.85590924879884    -2.78672786652360
Cl   9   17    -4.48169216485503    -3.92976278472880    -0.95330240907949
[GTO]
1 0
 s    6 1.00
          60923.640643  0.0017552243692958
          9147.8893982   0.013449023284001
          2081.3505927   0.066678874640978
          587.55977067    0.23176348548844
           191.0904399    0.46945550248188
          65.732730112     0.3596824938678
 s    3 1.00
          127.25891928   -0.10723431835929
           14.83091301    0.62971616328466
          6.0653307408    0.44472317896179
 s    3 1.00
           10.44994371   -0.21694289195548
          1.7245228003    0.69457867408393
         0.71772177325    0.43298308896347
 s    1 1.00
        0.091449828308                   1
 s    1 1.00
        0.033706691021                   1
 p    5 1.00
          773.43750995  0.0091440529992506
          182.15149714   0.067887577136571
          57.547272758    0.26167978878504
          20.614988935    0.51088040113251
           7.634855789    0.33235475570224
 p    3 1.00
           3.871932799    0.33193859098144
          1.4924724132     0.5553666555499
         0.56061284958    0.23106034201617
 p    1 1.00
              0.134915                   1
 d    4 1.00
          38.968133419   0.033335938558743
          10.800067078    0.17766212505983
          3.6136457999      0.441281781625
          1.2129967888    0.57089200490673
 d    1 1.00
          0.3652439317                   1
 f    1 1.00
                 1.598                   1

2 0
 s    5 1.00
          2266.1767785  -0.0053893503921743
          340.87010191   -0.04023472138896
          77.363135167   -0.18008184205526
           21.47964494   -0.46828857657651
          6.6589433124   -0.44692617160187
 s    1 1.00
         0.80975975668                   1
 s    1 1.00
         0.25530772234                   1
 p    3 1.00
          17.721504317   0.062630248763161
           3.863550544    0.33331138482352
          1.0480920883    0.74148638308122
 p    1 1.00
         0.27641544411                   1
 d    1 1.00
                   1.2                   1

3 0
 s    6 1.00
          60923.640643  0.0017552243692958
          9147.8893982   0.013449023284001
          2081.3505927   0.066678874640978
          587.55977067    0.23176348548844
           191.0904399    0.46945550248188
          65.732730112     0.3596824938678
 s    3 1.00
          127.25891928   -0.10723431835929
           14.83091301    0.62971616328466
          6.0653307408    0.44472317896179
 s    3 1.00
           10.44994371   -0.21694289195548
          1.7245228003    0.69457867408393
         0.71772177325    0.43298308896347
 s    1 1.00
        0.091449828308                   1
 s    1 1.00
        0.033706691021                   1
 p    5 1.00
          773.43750995  0.0091440529992506
          182.15149714   0.067887577136571
          57.547272758    0.26167978878504
          20.614988935    0.51088040113251
           7.634855789    0.33235475570224
 p    3 1.00
           3.871932799    0.33193859098144
          1.4924724132     0.5553666555499
         0.56061284958    0.23106034201617
 p    1 1.00
              0.134915                   1
 d    4 1.00
          38.968133419   0.033335938558743
          10.800067078    0.17766212505983
          3.6136457999      0.441281781625
          1.2129967888    0.57089200490673
 d    1 1.00
          0.3652439317                   1
 f    1 1.00
                 1.598                   1

4 0
 s    5 1.00
          10449.827566  0.0054265953789407
          1571.7365221   0.040626378128836
          357.12065523    0.18359747852877
          100.25185935    0.47438948768198
          30.812727554    0.43735181104122
 s    3 1.00
          51.923789434  -0.092754154848099
          5.7045760975    0.56380825544207
          2.3508376809    0.50367044629712
 s    1 1.00
         0.44605124672                   1
 s    1 1.00
          0.1684885619                   1
 p    5 1.00
          307.66790569  -0.0088797025588865
          72.102015515  -0.064284071721237
          22.532680262   -0.24288739736006
          7.8991765444   -0.48340836369878
          2.8767268321   -0.38952563875509
 p    1 1.00
         0.77459363955                   1
 p    1 1.00
         0.21037699698                   1
 d    1 1.00
                  0.65                   1

5 0
 s    5 1.00
          10449.827566  0.0054265953789407
          1571.7365221   0.040626378128836
          357.12065523    0.18359747852877
          100.25185935    0.47438948768198
          30.812727554    0.43735181104122
 s    3 1.00
          51.923789434  -0.092754154848099
          5.7045760975    0.56380825544207
          2.3508376809    0.50367044629712
 s    1 1.00
         0.44605124672                   1
 s    1 1.00
          0.1684885619                   1
 p    5 1.00
          307.66790569  -0.0088797025588865
          72.102015515  -0.064284071721237
          22.532680262   -0.24288739736006
          7.8991765444   -0.48340836369878
          2.8767268321   -0.38952563875509
 p    1 1.00
         0.77459363955                   1
 p    1 1.00
         0.21037699698                   1
 d    1 1.00
                  0.65                   1

6 0
 s    5 1.00
          10449.827566  0.0054265953789407
          1571.7365221   0.040626378128836
          357.12065523    0.18359747852877
          100.25185935    0.47438948768198
          30.812727554    0.43735181104122
 s    3 1.00
          51.923789434  -0.092754154848099
          5.7045760975    0.56380825544207
          2.3508376809    0.50367044629712
 s    1 1.00
         0.44605124672                   1
 s    1 1.00
          0.1684885619                   1
 p    5 1.00
          307.66790569  -0.0088797025588865
          72.102015515  -0.064284071721237
          22.532680262   -0.24288739736006
          7.8991765444   -0.48340836369878
          2.8767268321   -0.38952563875509
 p    1 1.00
         0.77459363955                   1
 p    1 1.00
         0.21037699698                   1
 d    1 1.00
                  0.65                   1

7 0
 s    5 1.00
          10449.827566  0.0054265953789407
          1571.7365221   0.040626378128836
          357.12065523    0.18359747852877
          100.25185935    0.47438948768198
          30.812727554    0.43735181104122
 s    3 1.00
          51.923789434  -0.092754154848099
          5.7045760975    0.56380825544207
          2.3508376809    0.50367044629712
 s    1 1.00
         0.44605124672                   1
 s    1 1.00
          0.1684885619                   1
 p    5 1.00
          307.66790569  -0.0088797025588865
          72.102015515  -0.064284071721237
          22.532680262   -0.24288739736006
          7.8991765444   -0.48340836369878
          2.8767268321   -0.38952563875509
 p    1 1.00
         0.77459363955                   1
 p    1 1.00
         0.21037699698                   1
 d    1 1.00
                  0.65                   1

8 0
 s    5 1.00
          10449.827566  0.0054265953789407
          1571.7365221   0.040626378128836
          357.12065523    0.18359747852877
          100.25185935    0.47438948768198
          30.812727554    0.43735181104122
 s    3 1.00
          51.923789434  -0.092754154848099
          5.7045760975    0.56380825544207
          2.3508376809    0.50367044629712
 s    1 1.00
         0.44605124672                   1
 s    1 1.00
          0.1684885619                   1
 p    5 1.00
          307.66790569  -0.0088797025588865
          72.102015515  -0.064284071721237
          22.532680262   -0.24288739736006
          7.8991765444   -0.48340836369878
          2.8767268321   -0.38952563875509
 p    1 1.00
         0.77459363955                   1
 p    1 1.00
         0.21037699698                   1
 d    1 1.00
                  0.65                   1

9 0
 s    5 1.00
          10449.827566  0.0054265953789407
          1571.7365221   0.040626378128836
          357.12065523    0.18359747852877
          100.25185935    0.47438948768198
          30.812727554    0.43735181104122
 s    3 1.00
          51.923789434  -0.092754154848099
          5.7045760975    0.56380825544207
          2.3508376809    0.50367044629712
 s    1 1.00
         0.44605124672                   1
 s    1 1.00
          0.1684885619                   1
 p    5 1.00
          307.66790569  -0.0088797025588865
          72.102015515  -0.064284071721237
          22.532680262   -0.24288739736006
          7.8991765444   -0.48340836369878
          2.8767268321   -0.38952563875509
 p    1 1.00
         0.77459363955                   1
 p    1 1.00
         0.21037699698                   1
 d    1 1.00
                  0.65                   1

[5d]
[7f]
[9g]

[MO]
 Sym= A
 Ene=               0
 Spin= Alpha
 Occup=    1.00000
   1    -0.0051065232108733
   2     0.014460345541019
   3    -0.071657370059293
   4    0.0044559457154441
   5    0.0025579277560282
   6    -0.024297069252915
   7    0.0047796238847487
   8    -0.011524122276801
   9      0.08078740345203
  10    -0.016103558816542
  11     0.038428580369122
  12    0.0029949635389934
  13    -0.0083660742013648
  14    -0.032197784040977
  15    0.0066662372644762
  16      0.03833839566765
  17    -8.770093749494e-05
  18     0.016579033180785
  19    -0.0028173231914539
  20    0.0040297967756227
  21     0.027433018083005
  22    0.0016616304096733
  23     0.011546196222547
  24    -0.0024353729387566
  25    0.0013444945100931
  26    4.0940718383272e-05
  27    0.00014570582899258
  28    -0.0021927876468892
  29    -3.3550440430555e-05
  30    -0.0013112045768238
  31    0.00015424991446424
  32      -0.1564447712639
  33      0.40050936980405
  34      0.31761533499598
  35    -4.3823285987081e-16
  36    6.6218867148748e-15
  37     -0.13359030621562
  38    -3.3664783050004e-16
  39    5.6377335164564e-15
  40     -0.10626556238384
  41    -0.0071846610602161
  42    -4.676565409371e-18
  43    1.3442745835594e-16
  44    0.0091722700314752
  45    -0.00034346657377516
  46    -0.0051065232108733
  47     0.014460345541019
  48    -0.071657370059295
  49    0.0044559457154441
  50    0.0025579277560283
  51     0.024297069252915
  52    -0.004779623884749
  53    -0.011524122276801
  54    -0.080787403452031
  55     0.016103558816543
  56     0.038428580369121
  57    -0.0029949635389935
  58    0.0083660742013676
  59    -0.032197784040978
  60    0.0066662372644757
  61     -0.03833839566765
  62    8.7700937493999e-05
  63     0.016579033180785
  64    -0.0028173231914517
  65    0.0040297967756226
  66    -0.027433018083005
  67    -0.001661630409674
  68     0.011546196222547
  69    -0.0024353729387551
  70    0.0013444945100931
  71    -4.0940718383281e-05
  72    -0.0001457058289926
  73    -0.0021927876468892
  74    -3.3550440430589e-05
  75    0.0013112045768238
  76    -0.00015424991446414
  77    0.00039509124669026
  78    -0.0032785946435612
  79     0.010929976345298
  80     0.012829223580207
  81     0.012680127720638
  82    -8.0561121335725e-05
  83    -0.00050009832508531
  84     0.023537267101108
  85    0.00099165834066674
  86    -0.0040087125126141
  87     0.037138597349805
  88    0.0062990390221783
  89    -0.0095183819092779
  90    0.00082003781284115
  91    -0.0018386147960781
  92    -0.00086915216509882
  93    -0.00064269439986022
  94    0.0011797124952308
  95    -0.00048435711631559
  96    0.0027644462272185
  97    0.00089183548788239
  98    -0.0092462281314153
  99     0.014019852328339
 100    -0.0021373725678145
 101    0.0061204885505505
 102     0.024612918379445
 103    -0.0029038623706962
 104     0.013995677196378
 105     0.042565186029004
 106    -0.0082025998788805
 107     0.017682546318717
 108    0.00070891926486275
 109    0.00094746022535096
 110    -0.00034697537406267
 111    0.00030641379207928
 112    0.00069454127286718
 113    -0.0024803476459733
 114     0.016869424306652
 115    -0.031346472835737
 116    -0.022334001664577
 117     0.017847856905786
 118    0.0092925823621909
 119    0.0016429482317431
 120     0.034170425047457
 121     0.018140517428376
 122    0.0026944612104606
 123     0.052063276477916
 124     0.029549905059553
 125     0.006605587662166
 126    0.00097739518004622
 127    0.0011339557018538
 128    0.00079765402217042
 129    0.0016507715011969
 130    -0.0017951651381857
 131    0.00039509124669017
 132    -0.0032785946435607
 133     0.010929976345297
 134     0.012829223580206
 135    -0.012680127720638
 136    8.0561121336168e-05
 137    -0.00050009832508508
 138    -0.023537267101109
 139    -0.00099165834066582
 140    -0.0040087125126136
 141    -0.037138597349805
 142    -0.006299039022177
 143    -0.0095183819092769
 144    0.00082003781284113
 145    0.0018386147960781
 146    0.00086915216509872
 147    -0.00064269439986015
 148    0.0011797124952308
 149    -0.00048435711631549
 150    0.0027644462272178
 151    0.00089183548788414
 152    -0.0092462281314146
 153    -0.014019852328338
 154    0.0021373725678144
 155    0.0061204885505508
 156    -0.024612918379444
 157    0.0029038623706958
 158     0.013995677196379
 159    -0.042565186029003
 160    0.0082025998788799
 161     0.017682546318718
 162    0.00070891926486274
 163    -0.00094746022535088
 164    0.00034697537406262
 165    0.00030641379207933
 166    0.00069454127286714
 167    -0.0024803476459734
 168     0.016869424306653
 169    -0.031346472835737
 170    -0.022334001664577
 171    -0.017847856905786
 172    -0.009292582362191
 173    0.0016429482317428
 174    -0.034170425047457
 175    -0.018140517428376
 176    0.0026944612104598
 177    -0.052063276477916
 178    -0.029549905059553
 179    0.0066055876621651
 180    0.00097739518004626
 181    -0.0011339557018538
 182    -0.00079765402217044
 183    0.0016507715011968
 184    -0.0017951651381858
 Sym= B
 Ene=               1
 Spin= Alpha
 Occup=    1.00000
   1    0.0034653537413642
   2    -0.0098094772711198
   3      0.04864908966719
   4     -0.02986977243978
   5    0.0045680924794189
   6    0.0031667248966499
   7    -0.0029808738365595
   8    -0.014413340103418
   9    -0.010754783534252
  10     0.010820567462012
  11     0.048243550131133
  12      0.03070355770156
  13      0.10242860001238
  14     0.030784879092245
  15     0.024951868716357
  16     -0.02808513719352
  17    -0.038062417442829
  18    -0.043019523858439
  19     -0.08969859025856
  20      0.01095004980288
  21    -0.011143924561688
  22    -0.024149216319896
  23    -0.022686912241285
  24    -0.056488967616511
  25    -0.00075349793110368
  26    -0.00066704011425311
  27    -0.0010400148353194
  28    0.0012610202531444
  29    0.0013354789257935
  30    0.0013354705543661
  31    0.0035636983765126
  32    2.0125793584135e-15
  33    -4.9510307666484e-15
  34    -4.0500879487921e-15
  35     -0.18120119805067
  36      0.49218461510745
  37    2.2196512821879e-15
  38     -0.14594976781449
  39      0.42004507099738
  40    1.8118558749034e-15
  41    1.0226378289072e-16
  42    -0.0042936473388686
  43     0.010002057711551
  44    -1.1400963882317e-16
  45    5.5522417536809e-18
  46    -0.0034653537413641
  47    0.0098094772711194
  48    -0.048649089667188
  49      0.02986977243978
  50    -0.004568092479419
  51    0.0031667248966493
  52    -0.0029808738365593
  53     0.014413340103418
  54     -0.01075478353425
  55     0.010820567462011
  56    -0.048243550131134
  57      0.03070355770156
  58      0.10242860001238
  59    -0.030784879092244
  60    -0.024951868716358
  61    -0.028085137193519
  62    -0.038062417442829
  63     0.043019523858439
  64      0.08969859025856
  65    -0.010950049802881
  66    -0.011143924561687
  67    -0.024149216319896
  68     0.022686912241285
  69     0.056488967616511
  70    0.00075349793110364
  71    -0.00066704011425311
  72    -0.0010400148353194
  73    -0.0012610202531443
  74    -0.0013354789257935
  75     0.001335470554366
  76    0.0035636983765126
  77    0.0034728252083439
  78    -0.023961448244627
  79     0.047825044496867
  80      0.03858341507032
  81    -0.00099052557534839
  82     0.018558214693446
  83    -0.011684645237703
  84    -0.0023504581754423
  85     0.038534459794442
  86    -0.023236706852505
  87    -0.0021107773705589
  88     0.053612692555444
  89    -0.043866728334036
  90    0.0012381706263256
  91    -0.0020775611670528
  92    -0.003885336476913
  93    -0.0025399302818287
  94    2.1005156106383e-05
  95    -0.0023685801190646
  96     0.017320494599826
  97    -0.044736037304556
  98    -0.016629010890109
  99    0.0086327833655169
 100    -0.002257780133458
 101    -0.0022523933743449
 102     0.022405902773992
 103    -0.0061044000413334
 104    -0.009746072339696
 105     0.025684143232948
 106    -0.012955928339906
 107    -0.0052630289237486
 108    0.0014983241880993
 109    0.0028140571261135
 110    -0.0011359552155226
 111    -0.0025688284669364
 112    0.0014664348629109
 113    0.0018955531232092
 114    -0.013498727290753
 115     0.033115752780191
 116    0.0043524622484362
 117    0.0033168295729208
 118    -0.0083831196054959
 119     0.015953109574927
 120    0.0051697944439604
 121    -0.020190999592186
 122     0.032945030981264
 123    0.0076664921951721
 124    -0.014238226001072
 125      0.04038506480863
 126    -0.0010114402530998
 127    -0.00057717210932303
 128    -0.0011179060984548
 129    0.0017529094761505
 130    0.0029860741784268
 131    -0.0034728252083441
 132     0.023961448244628
 133    -0.047825044496867
 134    -0.038583415070321
 135    -0.00099052557534806
 136     0.018558214693446
 137     0.011684645237703
 138    -0.0023504581754417
 139     0.038534459794443
 140     0.023236706852505
 141    -0.0021107773705579
 142     0.053612692555444
 143     0.043866728334036
 144    -0.0012381706263257
 145    -0.0020775611670529
 146    -0.003885336476913
 147    0.0025399302818287
 148    -2.1005156106416e-05
 149    0.0023685801190647
 150    -0.017320494599826
 151     0.044736037304555
 152     0.016629010890109
 153    0.0086327833655173
 154    -0.0022577801334581
 155    0.0022523933743447
 156     0.022405902773993
 157    -0.0061044000413335
 158    0.0097460723396955
 159     0.025684143232949
 160    -0.012955928339906
 161     0.005263028923748
 162    -0.0014983241880993
 163    0.0028140571261135
 164    -0.0011359552155226
 165    0.0025688284669363
 166    -0.0014664348629109
 167    -0.0018955531232091
 168     0.013498727290752
 169     -0.03311575278019
 170    -0.0043524622484355
 171    0.0033168295729213
 172    -0.0083831196054956
 173    -0.015953109574928
 174    0.0051697944439614
 175    -0.020190999592185
 176    -0.032945030981264
 177    0.0076664921951736
 178    -0.014238226001071
 179     -0.04038506480863
 180    0.0010114402530998
 181    -0.00057717210932299
 182    -0.0011179060984547
 183    -0.0017529094761505
 184    -0.0029860741784267
 Sym= A
 Ene=               2
 Spin= Alpha
 Occup=    1.00000
   1    -8.6553558023151e-05
   2    0.0005027565104948
   3    -0.00034353833702876
   4     0.062968033927873
   5    -0.030022651124707
   6    -0.0049929520468706
   7    -0.013819744957999
   8    -0.0017090738187247
   9     0.016666752997589
  10     0.046189669596195
  11    0.0065485560576726
  12    -0.044475409138368
  13     0.019909436780862
  14     0.087816428357663
  15    -0.064051202942526
  16    -0.048396646537285
  17    -0.00057562611265696
  18     0.052922778232574
  19    0.0071549213035401
  20     -0.03534405277189
  21    -0.036075165985261
  22    -0.0035838978510906
  23     0.025804750715614
  24    0.0061873434165232
  25    -0.00068985469644035
  26      0.00280486508098
  27    -6.7339301826852e-05
  28    0.0015702277191466
  29    -0.00031318614463738
  30    -0.002099845892491
  31    -0.00014411727568831
  32      0.01622252385826
  33    -0.060665536059568
  34    -0.044717831670914
  35    5.4215813548564e-17
  36    -3.1751351383008e-16
  37      0.46373491287235
  38    5.9993206578183e-17
  39    -2.7075439882046e-16
  40      0.39668320116189
  41     0.010607780893347
  42    1.6704357425903e-18
  43    -6.8582465674677e-18
  44    0.00032113600510883
  45    0.00045107847214791
  46    -8.655355802314e-05
  47    0.00050275651049475
  48    -0.0003435383370285
  49     0.062968033927873
  50    -0.030022651124707
  51    0.0049929520468706
  52     0.013819744957999
  53    -0.0017090738187247
  54    -0.016666752997589
  55    -0.046189669596195
  56    0.0065485560576725
  57     0.044475409138367
  58    -0.019909436780862
  59     0.087816428357663
  60    -0.064051202942526
  61     0.048396646537285
  62    0.00057562611265703
  63     0.052922778232574
  64      0.00715492130354
  65     -0.03534405277189
  66     0.036075165985261
  67    0.0035838978510907
  68     0.025804750715614
  69    0.0061873434165232
  70    -0.00068985469644035
  71     -0.00280486508098
  72    6.7339301826853e-05
  73    0.0015702277191466
  74    -0.00031318614463738
  75     0.002099845892491
  76    0.0001441172756883
  77    0.00028324557467948
  78    -0.0021885890128869
  79    0.0063031705809577
  80    -0.0028195141687424
  81    0.0027473114626821
  82    0.0088825247164472
  83    0.0053512865710716
  84    0.0047109095528936
  85     0.019765233056124
  86     0.008553630126949
  87    0.0068002066458442
  88     0.017694754325272
  89     0.022226756987573
  90     -0.00101401308731
  91    0.0029174909281839
  92    -0.0011629658557205
  93    0.00095814686570448
  94    -0.0016420651202502
  95    -0.0019914818167322
  96     0.014648455109071
  97     -0.04179629374049
  98     0.003187133252691
  99    0.0044210356207664
 100    0.00091075989073884
 101    -0.0086952980050097
 102     0.012791372585818
 103    -0.0012048178361611
 104    -0.020987542188515
 105     0.010799537815275
 106    0.0078606871485747
 107    -0.022037413769919
 108    0.0005855374925681
 109    0.0010273002546036
 110    0.00064716155377569
 111    -0.0023719772882796
 112    0.0010084386338511
 113    0.0034138896411745
 114    -0.023663531388053
 115     0.046163745830625
 116     0.041722252869567
 117    -0.0088020742250449
 118    -0.012269527245608
 119    0.0084248690847691
 120     -0.01902877066005
 121    -0.026262537431899
 122     0.018416884316875
 123     -0.02462080048491
 124    -0.044834842654425
 125     0.022745948613687
 126    -0.0012577149442722
 127    -0.0018872272733659
 128    -0.003297861148058
 129    -0.0029690304620676
 130    0.0013907711880718
 131    0.00028324557467949
 132    -0.0021885890128869
 133    0.0063031705809576
 134    -0.0028195141687425
 135    -0.0027473114626821
 136    -0.0088825247164471
 137    0.0053512865710717
 138    -0.0047109095528936
 139    -0.019765233056124
 140     0.008553630126949
 141    -0.0068002066458442
 142    -0.017694754325272
 143     0.022226756987573
 144     -0.00101401308731
 145    -0.0029174909281839
 146    0.0011629658557205
 147    0.00095814686570448
 148    -0.0016420651202502
 149    -0.0019914818167322
 150     0.014648455109071
 151    -0.041796293740489
 152    0.0031871332526912
 153    -0.0044210356207664
 154    -0.00091075989073889
 155    -0.0086952980050096
 156    -0.012791372585818
 157    0.0012048178361609
 158    -0.020987542188515
 159    -0.010799537815275
 160    -0.0078606871485748
 161    -0.022037413769919
 162    0.0005855374925681
 163    -0.0010273002546035
 164    -0.00064716155377571
 165    -0.0023719772882796
 166    0.0010084386338511
 167    0.0034138896411746
 168    -0.023663531388054
 169     0.046163745830625
 170     0.041722252869567
 171    0.0088020742250449
 172     0.012269527245609
 173    0.0084248690847691
 174      0.01902877066005
 175       0.0262625374319
 176     0.018416884316875
 177      0.02462080048491
 178     0.044834842654426
 179     0.022745948613687
 180    -0.0012577149442722
 181    0.0018872272733659
 182    0.0032978611480581
 183    -0.0029690304620676
 184    0.0013907711880718
 Sym= B
 Ene=               3
 Spin= Alpha
 Occup=    1.00000
   1    -0.00036530323351122
   2    -0.00011810001296068
   3    -0.0097782409236718
   4    -0.080271835292894
   5     0.027552653179213
   6    -0.015182845716369
   7    0.0043215152114618
   8    -0.0019502121246921
   9     0.051242400044991
  10    -0.014814451206117
  11     0.006852496038682
  12     0.065085083907046
  13    -0.032937098831645
  14     0.016896564453865
  15      0.03175266894409
  16    -0.061952451518643
  17    0.0068362607303337
  18    -0.072998514473452
  19     0.018969131785715
  20     0.015766667789681
  21     -0.02952553988996
  22    0.0047449786570175
  23    -0.032622696562076
  24     0.011216417278413
  25    -0.0017301555871622
  26    -0.00082402215142648
  27    2.7059721875103e-05
  28    0.0023964975047407
  29    -0.00030575944518037
  30    0.0027913227731878
  31    -0.00092199061455914
  32    -6.6877584406696e-16
  33    1.6324634537787e-15
  34    1.2244236160998e-15
  35     -0.34092698121091
  36     -0.12848663913098
  37    -5.7372682470797e-16
  38       -0.274652024976
  39     -0.10785344684707
  40    -4.5020730578252e-16
  41    -2.8620146788294e-17
  42    -0.009038808686948
  43    -0.0026647990368852
  44    3.5498832809005e-17
  45    -1.8127958699826e-18
  46    0.0003653032335114
  47    0.0001181000129608
  48    0.0097782409236711
  49     0.080271835292894
  50    -0.027552653179213
  51    -0.015182845716369
  52    0.0043215152114617
  53     0.001950212124692
  54     0.051242400044991
  55    -0.014814451206117
  56    -0.0068524960386818
  57     0.065085083907046
  58    -0.032937098831645
  59    -0.016896564453865
  60     -0.03175266894409
  61    -0.061952451518644
  62    0.0068362607303335
  63     0.072998514473453
  64    -0.018969131785715
  65    -0.015766667789681
  66    -0.029525539889961
  67    0.0047449786570175
  68     0.032622696562076
  69    -0.011216417278414
  70    0.0017301555871622
  71    -0.00082402215142648
  72     2.70597218751e-05
  73    -0.0023964975047407
  74    0.00030575944518037
  75    0.0027913227731878
  76    -0.00092199061455915
  77    0.0011929433968405
  78    -0.0083941510456061
  79     0.019282462251338
  80    0.0085649797125343
  81     0.013948186391635
  82    0.0028876803699628
  83    -0.0077641661388113
  84      0.02903901420876
  85    0.0063553079962758
  86    -0.017397141811529
  87      0.03801462696435
  88     0.010564705060315
  89    -0.023198452105672
  90    0.00042650516764588
  91    -0.0010950010749663
  92    -9.0741849853247e-05
  93     1.11720445024e-05
  94    0.00070078653297119
  95    0.0016059863986187
  96    -0.011521338274558
  97     0.030388554462668
  98     0.005254220941109
  99    0.0067922883236587
 100    0.0037761359299963
 101     0.015807530255959
 102      0.01202659839905
 103    0.0087550126465777
 104     0.034472095455915
 105      0.02044787342548
 106     0.011480123986653
 107     0.044537190607006
 108    0.0019893949782289
 109    0.00015487016322906
 110    0.00062309575675672
 111    -0.0014284489986155
 112    0.0010245730461921
 113    -0.001295009456779
 114    0.0093132922388836
 115    -0.021226186668521
 116    -0.011978032894799
 117      0.01330743311586
 118    -0.00029153391532474
 119    0.0022945915633315
 120     0.028853966743213
 121     0.001752639985972
 122    0.0039350380437151
 123     0.037708966265749
 124    -0.00051136894821451
 125    0.0076132498009361
 126    0.0019603657074996
 127    0.00046393798120406
 128    0.00020947782668517
 129    -0.00038375841797035
 130    -0.0043554609730543
 131    -0.0011929433968406
 132    0.0083941510456061
 133    -0.019282462251338
 134    -0.0085649797125342
 135     0.013948186391635
 136    0.0028876803699628
 137    0.0077641661388113
 138      0.02903901420876
 139    0.0063553079962758
 140     0.017397141811529
 141     0.038014626964349
 142     0.010564705060315
 143     0.023198452105672
 144    -0.00042650516764587
 145    -0.0010950010749663
 146    -9.0741849853243e-05
 147    -1.1172044502403e-05
 148    -0.00070078653297118
 149    -0.0016059863986187
 150     0.011521338274558
 151    -0.030388554462668
 152    -0.005254220941109
 153    0.0067922883236585
 154    0.0037761359299963
 155    -0.015807530255959
 156      0.01202659839905
 157    0.0087550126465778
 158    -0.034472095455915
 159      0.02044787342548
 160     0.011480123986653
 161    -0.044537190607006
 162    -0.0019893949782289
 163    0.00015487016322905
 164    0.00062309575675672
 165    0.0014284489986155
 166    -0.0010245730461921
 167    0.0012950094567789
 168    -0.0093132922388834
 169      0.02122618666852
 170     0.011978032894798
 171      0.01330743311586
 172    -0.00029153391532485
 173    -0.0022945915633315
 174     0.028853966743213
 175    0.0017526399859718
 176    -0.0039350380437151
 177     0.037708966265748
 178    -0.00051136894821486
 179    -0.0076132498009361
 180    -0.0019603657074996
 181    0.00046393798120405
 182    0.00020947782668516
 183    0.00038375841797037
 184    0.0043554609730543
