[Molden Format]
made by pyscf v[2.1.1]
[Atoms] (AU)
Fe   1   26     3.17068844873907     0.00098706064664     0.12237737881307
O   2   8     0.00000000000000     0.00000000000000    -0.89004350580623
Fe   3   26    -3.17068844873907    -0.00098706064664     0.12237737881307
Cl   4   17     3.53383895113107    -2.07485195383062     3.76228752659000
Cl   5   17     5.54152580550813    -1.85590924879884    -2.78672786652360
Cl   6   17     4.48169216485503     3.92976278472880    -0.95330240907949
Cl   7   17    -3.53383895113107     2.07485195383062     3.76228752659000
Cl   8   17    -5.54152580550813     1.85590924879884    -2.78672786652360
Cl   9   17    -4.48169216485503    -3.92976278472880    -0.95330240907949
[GTO]
1 0
 s    6 1.00
          60923.640643  0.0017552243692958
          9147.8893982   0.013449023284001
          2081.3505927   0.066678874640978
          587.55977067    0.23176348548844
           191.0904399    0.46945550248188
          65.732730112     0.3596824938678
 s    3 1.00
          127.25891928   -0.10723431835929
           14.83091301    0.62971616328466
          6.0653307408    0.44472317896179
 s    3 1.00
           10.44994371   -0.21694289195548
          1.7245228003    0.69457867408393
         0.71772177325    0.43298308896347
 s    1 1.00
        0.091449828308                   1
 s    1 1.00
        0.033706691021                   1
 p    5 1.00
          773.43750995  0.0091440529992506
          182.15149714   0.067887577136571
          57.547272758    0.26167978878504
          20.614988935    0.51088040113251
           7.634855789    0.33235475570224
 p    3 1.00
           3.871932799    0.33193859098144
          1.4924724132     0.5553666555499
         0.56061284958    0.23106034201617
 p    1 1.00
              0.134915                   1
 d    4 1.00
          38.968133419   0.033335938558743
          10.800067078    0.17766212505983
          3.6136457999      0.441281781625
          1.2129967888    0.57089200490673
 d    1 1.00
          0.3652439317                   1
 f    1 1.00
                 1.598                   1

2 0
 s    5 1.00
          2266.1767785  -0.0053893503921743
          340.87010191   -0.04023472138896
          77.363135167   -0.18008184205526
           21.47964494   -0.46828857657651
          6.6589433124   -0.44692617160187
 s    1 1.00
         0.80975975668                   1
 s    1 1.00
         0.25530772234                   1
 p    3 1.00
          17.721504317   0.062630248763161
           3.863550544    0.33331138482352
          1.0480920883    0.74148638308122
 p    1 1.00
         0.27641544411                   1
 d    1 1.00
                   1.2                   1

3 0
 s    6 1.00
          60923.640643  0.0017552243692958
          9147.8893982   0.013449023284001
          2081.3505927   0.066678874640978
          587.55977067    0.23176348548844
           191.0904399    0.46945550248188
          65.732730112     0.3596824938678
 s    3 1.00
          127.25891928   -0.10723431835929
           14.83091301    0.62971616328466
          6.0653307408    0.44472317896179
 s    3 1.00
           10.44994371   -0.21694289195548
          1.7245228003    0.69457867408393
         0.71772177325    0.43298308896347
 s    1 1.00
        0.091449828308                   1
 s    1 1.00
        0.033706691021                   1
 p    5 1.00
          773.43750995  0.0091440529992506
          182.15149714   0.067887577136571
          57.547272758    0.26167978878504
          20.614988935    0.51088040113251
           7.634855789    0.33235475570224
 p    3 1.00
           3.871932799    0.33193859098144
          1.4924724132     0.5553666555499
         0.56061284958    0.23106034201617
 p    1 1.00
              0.134915                   1
 d    4 1.00
          38.968133419   0.033335938558743
          10.800067078    0.17766212505983
          3.6136457999      0.441281781625
          1.2129967888    0.57089200490673
 d    1 1.00
          0.3652439317                   1
 f    1 1.00
                 1.598                   1

4 0
 s    5 1.00
          10449.827566  0.0054265953789407
          1571.7365221   0.040626378128836
          357.12065523    0.18359747852877
          100.25185935    0.47438948768198
          30.812727554    0.43735181104122
 s    3 1.00
          51.923789434  -0.092754154848099
          5.7045760975    0.56380825544207
          2.3508376809    0.50367044629712
 s    1 1.00
         0.44605124672                   1
 s    1 1.00
          0.1684885619                   1
 p    5 1.00
          307.66790569  -0.0088797025588865
          72.102015515  -0.064284071721237
          22.532680262   -0.24288739736006
          7.8991765444   -0.48340836369878
          2.8767268321   -0.38952563875509
 p    1 1.00
         0.77459363955                   1
 p    1 1.00
         0.21037699698                   1
 d    1 1.00
                  0.65                   1

5 0
 s    5 1.00
          10449.827566  0.0054265953789407
          1571.7365221   0.040626378128836
          357.12065523    0.18359747852877
          100.25185935    0.47438948768198
          30.812727554    0.43735181104122
 s    3 1.00
          51.923789434  -0.092754154848099
          5.7045760975    0.56380825544207
          2.3508376809    0.50367044629712
 s    1 1.00
         0.44605124672                   1
 s    1 1.00
          0.1684885619                   1
 p    5 1.00
          307.66790569  -0.0088797025588865
          72.102015515  -0.064284071721237
          22.532680262   -0.24288739736006
          7.8991765444   -0.48340836369878
          2.8767268321   -0.38952563875509
 p    1 1.00
         0.77459363955                   1
 p    1 1.00
         0.21037699698                   1
 d    1 1.00
                  0.65                   1

6 0
 s    5 1.00
          10449.827566  0.0054265953789407
          1571.7365221   0.040626378128836
          357.12065523    0.18359747852877
          100.25185935    0.47438948768198
          30.812727554    0.43735181104122
 s    3 1.00
          51.923789434  -0.092754154848099
          5.7045760975    0.56380825544207
          2.3508376809    0.50367044629712
 s    1 1.00
         0.44605124672                   1
 s    1 1.00
          0.1684885619                   1
 p    5 1.00
          307.66790569  -0.0088797025588865
          72.102015515  -0.064284071721237
          22.532680262   -0.24288739736006
          7.8991765444   -0.48340836369878
          2.8767268321   -0.38952563875509
 p    1 1.00
         0.77459363955                   1
 p    1 1.00
         0.21037699698                   1
 d    1 1.00
                  0.65                   1

7 0
 s    5 1.00
          10449.827566  0.0054265953789407
          1571.7365221   0.040626378128836
          357.12065523    0.18359747852877
          100.25185935    0.47438948768198
          30.812727554    0.43735181104122
 s    3 1.00
          51.923789434  -0.092754154848099
          5.7045760975    0.56380825544207
          2.3508376809    0.50367044629712
 s    1 1.00
         0.44605124672                   1
 s    1 1.00
          0.1684885619                   1
 p    5 1.00
          307.66790569  -0.0088797025588865
          72.102015515  -0.064284071721237
          22.532680262   -0.24288739736006
          7.8991765444   -0.48340836369878
          2.8767268321   -0.38952563875509
 p    1 1.00
         0.77459363955                   1
 p    1 1.00
         0.21037699698                   1
 d    1 1.00
                  0.65                   1

8 0
 s    5 1.00
          10449.827566  0.0054265953789407
          1571.7365221   0.040626378128836
          357.12065523    0.18359747852877
          100.25185935    0.47438948768198
          30.812727554    0.43735181104122
 s    3 1.00
          51.923789434  -0.092754154848099
          5.7045760975    0.56380825544207
          2.3508376809    0.50367044629712
 s    1 1.00
         0.44605124672                   1
 s    1 1.00
          0.1684885619                   1
 p    5 1.00
          307.66790569  -0.0088797025588865
          72.102015515  -0.064284071721237
          22.532680262   -0.24288739736006
          7.8991765444   -0.48340836369878
          2.8767268321   -0.38952563875509
 p    1 1.00
         0.77459363955                   1
 p    1 1.00
         0.21037699698                   1
 d    1 1.00
                  0.65                   1

9 0
 s    5 1.00
          10449.827566  0.0054265953789407
          1571.7365221   0.040626378128836
          357.12065523    0.18359747852877
          100.25185935    0.47438948768198
          30.812727554    0.43735181104122
 s    3 1.00
          51.923789434  -0.092754154848099
          5.7045760975    0.56380825544207
          2.3508376809    0.50367044629712
 s    1 1.00
         0.44605124672                   1
 s    1 1.00
          0.1684885619                   1
 p    5 1.00
          307.66790569  -0.0088797025588865
          72.102015515  -0.064284071721237
          22.532680262   -0.24288739736006
          7.8991765444   -0.48340836369878
          2.8767268321   -0.38952563875509
 p    1 1.00
         0.77459363955                   1
 p    1 1.00
         0.21037699698                   1
 d    1 1.00
                  0.65                   1

[5d]
[7f]
[9g]

[MO]
 Sym= A
 Ene=               0
 Spin= Alpha
 Occup=    1.00000
   1    -0.0070851715972813
   2     0.014774918086336
   3     -0.12013608947769
   4     -0.16133211580028
   5     0.049237538386512
   6      0.04064771833391
   7    0.0010511209351009
   8     0.017149659439877
   9     -0.13518857454098
  10    -0.0032607642852973
  11    -0.056044465306585
  12    -0.053523424102608
  13    0.00091176786039551
  14    -0.022263496320792
  15    -0.0060808454188248
  16    0.0065391428266221
  17     0.010516430507998
  18    0.0067128099337248
  19    0.0011541678609803
  20    -0.0075151202847353
  21     0.011948935559431
  22    0.0081946697058272
  23     0.013336134556362
  24    0.00080057022070298
  25    -0.0010297865065458
  26    -0.00055729838518127
  27    0.0017477789685291
  28    0.0004442464058933
  29    -0.00031907431371036
  30    0.00086657747060037
  31    0.00061237980077762
  32     0.012437562981687
  33      0.10680835704343
  34     0.081470628565944
  35    -0.073199639103024
  36    0.00092193699855937
  37    -0.0010880842063235
  38    -0.081023958156909
  39    0.0020953218781542
  40    0.00021048238092714
  41    -0.0010331487053021
  42    -0.0032028442743402
  43    7.8096390526527e-05
  44    0.0022148077696887
  45    -3.6218715005351e-05
  46    0.0020170003928983
  47    -0.0023189321256191
  48     0.041399207268475
  49      0.11359081106949
  50    -0.038217318495124
  51     0.033628685951316
  52    0.00071857160997884
  53    -0.015612554052624
  54     -0.11267057929253
  55    -0.0022280492400031
  56     0.051173008548951
  57     -0.02406780436061
  58    0.0005321916902183
  59     0.009114863301796
  60    -0.0041685441483278
  61     -0.01093142794977
  62    0.0061642165493234
  63      0.01470640838691
  64    -0.00035621837539819
  65    0.0004445077782479
  66    -0.0010310787780184
  67    0.0047380869323667
  68    0.0016420926109063
  69    -0.0002537263154452
  70    0.0012775996137841
  71    -0.00079761274922123
  72    0.0010122508435816
  73     -0.00121349491726
  74    0.00015851609456405
  75    0.0016204809650497
  76    0.00035574022836478
  77    -0.0092850744176712
  78     0.064798286418626
  79     -0.13777546686831
  80    -0.073093217933907
  81    -0.0058302193608885
  82    -0.023722855704088
  83     0.034823107627919
  84    -0.0086141853831645
  85    -0.050013294415557
  86     0.076444688219016
  87    -0.012174502756393
  88    -0.065798069044997
  89     0.097955052741526
  90    -0.0070135994710665
  91    -0.00017357336509912
  92    0.0088380772853235
  93    0.0028577998632053
  94    0.00011883010079903
  95    -0.0089795172142889
  96     0.062950687339108
  97     -0.13486881058788
  98    -0.078258171832788
  99     0.013321628785936
 100    -0.015133970079514
 101    -0.031378576278214
 102     0.033367931009132
 103    -0.034802749670998
 104    -0.067028552240443
 105     0.046055337083614
 106    -0.043415728411138
 107    -0.089172851134277
 108    -0.0037228502543796
 109     0.007578606814123
 110    -0.0064358045461947
 111    -0.00059173894673813
 112     0.004523127819443
 113    -0.0084536416946331
 114       0.0592328761764
 115     -0.12662795078162
 116    -0.073742051456086
 117    0.0024580068244159
 118     0.033521645089094
 119    -0.017241954115618
 120    0.0094967365119078
 121     0.074383569620201
 122    -0.033571869990576
 123     0.013321634267271
 124     0.097555430803353
 125    -0.048755335026032
 126    0.0035352292844074
 127    0.0013137449939687
 128     0.005156916271209
 129    0.0073001080942045
 130    -0.0039215742570314
 131    0.0054565006885618
 132    -0.038268585000901
 133     0.083145283948753
 134     0.044368389698385
 135    -0.0066766708756529
 136    -0.014204124436259
 137    -0.020383321996033
 138    -0.010621812370184
 139    -0.030187664930502
 140    -0.045443860630716
 141    -0.017342178718056
 142    -0.040059078076993
 143     -0.05826156420008
 144    0.0044350070406731
 145    8.541880658817e-05
 146    0.0056204544155962
 147    -0.0018039183445006
 148    0.00011324007510784
 149     0.005259466381823
 150    -0.037127599062312
 151     0.081344086356933
 152     0.048654835783091
 153    0.0041565770402212
 154    -0.0085041370386249
 155     0.018930840906104
 156      0.01392674729081
 157    -0.020227791385575
 158     0.040859468005212
 159     0.017313333458642
 160    -0.024963244888733
 161     0.054807063982277
 162    0.0023444584320039
 163    0.0044690935522267
 164    -0.0039644146386167
 165    0.00046019324569793
 166      -0.0026933347914
 167    0.0049111343518948
 168    -0.034658492521603
 169     0.076139513353445
 170     0.044693745969354
 171    -0.0018689094416723
 172     0.018839555939422
 173     0.010990179050152
 174    0.00024111417549224
 175     0.043031261901288
 176      0.02136755154246
 177    -0.0019496029651922
 178     0.055835231205863
 179      0.03146583724112
 180    -0.0022130867503579
 181    0.00065589975406673
 182    0.0032265602331535
 183    -0.004348423782437
 184    0.0023726157057762
 Sym= A
 Ene=               1
 Spin= Alpha
 Occup=    1.00000
   1    -0.0012624744301192
   2    0.0037551393587905
   3    -0.016795124211693
   4     0.031469241005714
   5    -0.013929159754838
   6    -0.00067801989819174
   7    -0.0014776969243877
   8     0.004808240053374
   9    0.0021473194318832
  10    0.0046677566308542
  11    -0.014936499479712
  12    -0.0023346540059117
  13    -0.0057445578952957
  14     0.021809710771203
  15     -0.20129517106759
  16      0.47894349029421
  17      0.48273038468751
  18     -0.43357080796783
  19     -0.28034089306732
  20    -0.054083637159561
  21      0.12836789477992
  22      0.13067659564515
  23     -0.11765350448467
  24    -0.075327869636558
  25    -0.001065844247508
  26    0.0010670254540566
  27    0.00098054201324968
  28    0.00025921590584493
  29    0.00029218080057925
  30    -0.00088712756817907
  31    -0.00057294546750297
  32    -0.0018812243920003
  33    -0.0050967824898843
  34    -0.0025537362739734
  35    -0.0086483864573855
  36    -0.014399737334616
  37     0.049584912401155
  38    -0.0094574936068457
  39    -0.014021458953893
  40     0.048219577465536
  41    0.00020486316905358
  42    -0.0012000329439848
  43    0.0001974656807169
  44    0.00011826104500642
  45    0.00019572921819821
  46    -0.00052574718285116
  47    0.0015699611397376
  48    -0.0070002761516667
  49    0.0074469133637445
  50    -0.0013408820059479
  51    0.0024284752522993
  52    -0.00052538474188202
  53    0.0008376385910564
  54    -0.0077508893046451
  55    0.0016720505223182
  56    -0.0026746112166304
  57    0.0067288818571131
  58    -0.0030768697790764
  59     0.008539123751059
  60    -0.0012752476237224
  61    0.00071361451318007
  62    7.1256961773101e-06
  63    0.0019590585414201
  64    -0.00060759095846517
  65    -0.0014003379904633
  66    0.0023066272816247
  67    0.00015476322268283
  68    0.00081310669889155
  69    -0.00085977518251224
  70    -4.949529678192e-05
  71    -0.00039237230054876
  72    -1.7782681149427e-05
  73    9.1369602086133e-05
  74    6.2287381419104e-05
  75    0.00028375448815227
  76    -0.00012035643886987
  77    0.0013678035584269
  78    -0.0089692200279336
  79     0.011347215919908
  80    0.0065346706052557
  81     -0.01807107100253
  82    0.0080035130447014
  83    -0.010004455761334
  84    -0.030642159346658
  85     0.013808768520142
  86    -0.017432577010365
  87    -0.050506291704123
  88     0.022134070917603
  89    -0.027766976736276
  90    0.00048518765508956
  91    -0.0019647057151721
  92    0.00045177383655266
  93    -0.00086838258957611
  94    0.0012409574592882
  95    -8.187441797327e-05
  96    0.00055759288551761
  97    -0.0022451853854066
  98    0.0045303465858796
  99     0.011791107071795
 100     0.025701019821961
 101    -0.0080044099904848
 102     0.019903133944067
 103     0.043317402259225
 104    -0.013350245683224
 105     0.031869058145037
 106     0.073903377752405
 107    -0.022203306601273
 108    0.00070917396954377
 109    -0.0013556838870257
 110    -0.0016571099531054
 111    0.0020452239765575
 112    0.0012718934556343
 113    -0.00020085753321441
 114    0.0013304927193402
 115    -0.0030810232177065
 116    0.0026417318873787
 117     0.013244289074976
 118    -0.0077782359107485
 119     -0.02192287277897
 120     0.022201994792787
 121    -0.013102657677106
 122    -0.036790145236977
 123     0.037137998769917
 124    -0.023095633897134
 125    -0.062105478462237
 126    0.00098988202211714
 127    -0.0012773991190266
 128    -0.0015530998885745
 129    0.0016691708624342
 130    0.00079496551670756
 131    -0.00022416267764456
 132    0.0015135706916969
 133    -0.0028146549671663
 134    -0.0014910300546482
 135    -0.0015525845511993
 136    0.00083853258399218
 137    0.0007840871107824
 138    -0.0028636664714403
 139    0.0014347027400513
 140    0.0013731405350124
 141    -0.0037564121711619
 142    0.0032801898889891
 143    0.0030828535321866
 144    -0.00010629936762616
 145    -0.00031181266244613
 146    5.1473369940415e-05
 147    0.00017675522226411
 148    -0.00024837522436134
 149    7.7414905229564e-05
 150    -0.00050917068203475
 151    0.00037031699472576
 152    0.0032623783308348
 153    0.0010522168374081
 154    7.6967851531773e-05
 155    -0.00069412193201198
 156     0.001831121291115
 157    0.00018378405390882
 158    -0.0012500879606862
 159    0.0035837885988302
 160    -0.00080130671439782
 161    -0.00049861149639784
 162    4.5390890782671e-05
 163    0.00014082319635242
 164    -5.547655025749e-05
 165    -9.5034400006811e-05
 166    -3.0585928588198e-05
 167    -0.00010070385587336
 168    0.00068137262240964
 169    -0.0014329182470821
 170    0.00028895002826169
 171    -0.00075406139497404
 172    -0.00040693526168315
 173    -0.00078926538832365
 174    -0.0013704755683824
 175    -0.00074411085746285
 176    -0.0013015297540386
 177    -0.0019864325342015
 178    -0.00093053526507506
 179    -0.0026917331389182
 180    -0.00010614559632309
 181    0.00013540675860133
 182    1.2870041136728e-05
 183    0.0001058547338646
 184    0.00017965845961257
 Sym= A
 Ene=               2
 Spin= Alpha
 Occup=    1.00000
   1    -0.00083342290456822
   2    0.0024797521680729
   3    -0.011079234985434
   4     0.021070785978446
   5    -0.0075544874454477
   6    -4.4083534922592e-05
   7    0.0065214085801384
   8    0.0033023055725132
   9    0.00011512250578981
  10    -0.020054897095377
  11    -0.010088176955926
  12    0.00092727162542013
  13     0.028261432745241
  14     0.015721005170345
  15       0.5247893205563
  16      0.15477636684404
  17      0.46394355936586
  18      0.13091969094612
  19      0.48633748051727
  20       0.1409816783921
  21     0.040740914575514
  22       0.1245980448029
  23     0.034781653379476
  24      0.12900282189566
  25    0.00059363468180878
  26    0.0013496030883459
  27    0.00055241028456655
  28    0.00067544106556414
  29    0.0017073268108694
  30    7.8919435581431e-05
  31    0.0015208093559267
  32    -0.0022475313026212
  33    -0.0058798220546768
  34    -0.0028871779012637
  35    -0.0092134906474476
  36     0.076074828114251
  37     0.042438557353742
  38    -0.010232396908206
  39     0.073251892293619
  40     0.041430301992465
  41    0.00063102110873994
  42    -0.0012348060622086
  43    0.0011389830084406
  44    0.0004970237907243
  45    -0.0016929106717181
  46    -0.00051488386679058
  47    0.0015250851956319
  48    -0.0069092981550416
  49    0.0083677278956958
  50    -0.0020154024739499
  51    0.0021767133921757
  52    0.0022255628418234
  53    0.00050574154036483
  54    -0.0069497095631103
  55    -0.0070862501130503
  56    -0.0016208243378283
  57    0.0055215115667789
  58     0.014249605127658
  59    0.0069230989311944
  60    -0.0013746745541536
  61    0.0001305220925199
  62    -0.00042130816661635
  63    0.0014505974652554
  64    0.0021720378455828
  65    -0.0012381715548161
  66    0.0019759921292529
  67    -0.001219663772686
  68    0.00051704361606187
  69    0.0049898545264966
  70    -2.0144247768299e-05
  71    -0.0003343656951441
  72    -0.00014483022917018
  73    0.00011147968088275
  74    -0.00034979232149773
  75    0.00027010086598379
  76    0.00066390636762665
  77    7.9002532379537e-05
  78    -0.0005125148228356
  79    0.00010578277575179
  80    0.0010166242598455
  81    0.0031730810759222
  82    -0.022896936393117
  83    -0.013944421308022
  84    0.0053317672522358
  85    -0.038615605585522
  86    -0.023631832696979
  87    0.0090283694294291
  88    -0.065522892525684
  89    -0.039931908714237
  90    -0.0025944406609889
  91    0.00043611591161722
  92    -0.0013270707432284
  93    -0.0014283596301224
  94    -0.00011700361195564
  95    -0.00042605623353063
  96    0.0028453424548642
  97    -0.0053327050586548
  98    0.0036238570593415
  99     0.016228692977746
 100    -0.0098706677742339
 101     0.013859322542881
 102     0.027545719365055
 103     -0.01657454803747
 104     0.023278593684418
 105     0.043782677854843
 106    -0.028271221447947
 107     0.040372769031604
 108    -0.0023956318784869
 109    -2.5150475482206e-05
 110    9.5047285341353e-06
 111    0.00086353106680679
 112    -0.0012544579698317
 113    0.0010875892834937
 114    -0.0071239806215292
 115    0.0093740329454919
 116     0.003273151528834
 117    -0.015793550308304
 118    -0.0090163879674837
 119    -0.0078060697881029
 120    -0.026650421605762
 121    -0.015469876640077
 122    -0.013070845012432
 123    -0.044003681935806
 124    -0.024868261225305
 125    -0.022775825825092
 126    0.00094656039863409
 127    0.00021193455898124
 128    -0.0011504978487369
 129    -0.0007856943440152
 130    -0.0011652291483148
 131    -0.00029241024822859
 132     0.001935103546178
 133    -0.0025939930889109
 134    -0.0053213216343707
 135    -0.0024305960511369
 136    -3.7291192545797e-05
 137    0.0019501618089959
 138    -0.0042739426971455
 139    -0.00011350757764463
 140    0.0033027775045599
 141    -0.0065491834917051
 142    0.0011618850822363
 143    0.0080870273776077
 144    -3.6912561723997e-05
 145    -0.00054286618864389
 146    -6.1547700547714e-05
 147    0.00029642306679852
 148    -9.0980720904675e-05
 149    -9.8895509074943e-05
 150    0.00066368637964011
 151    -0.0012810804692724
 152    -9.7312568303146e-05
 153    -0.00089671669533033
 154    -0.00045666199862848
 155    -0.00078704217930957
 156    -0.0016063835670773
 157    -0.00064709637628306
 158    -0.0012643295539747
 159    -0.0024753977314433
 160    -0.0023337956455064
 161    -0.0028358573179772
 162    -0.00017694922681822
 163    0.00012587917807786
 164    -2.1442540771251e-05
 165    0.00012321720365624
 166    2.4108999593501e-05
 167    0.0002701255400757
 168    -0.0017976788199934
 169    0.0026167625596185
 170    0.0045238249331751
 171    0.0030061173154239
 172    0.0008178689930226
 173    -0.0008279820133594
 174     0.005402975140268
 175    0.0013606466552865
 176    -0.0014994880832222
 177    0.0077189260507269
 178     0.004632949862758
 179    -0.0013589826220035
 180    0.00012663964075393
 181    0.00021916989331102
 182    0.00019121917952956
 183    -0.00053504387156501
 184    -0.0002107264796288
 Sym= A
 Ene=               3
 Spin= Alpha
 Occup=    1.00000
   1    0.00060853358390983
   2    -0.0018142423864929
   3    0.0080868826507176
   4    -0.010043919555919
   5    -0.0019742416688724
   6     0.002336388763014
   7    0.0044964614847129
   8    -0.0042158089320862
   9    -0.0072438264265388
  10    -0.014206161262573
  11     0.013410042414197
  12    0.0063492231499734
  13    0.0073195300721988
  14    -0.0058593368129738
  15      0.55573373156539
  16      0.37269620980427
  17     -0.30124322203493
  18       0.1136123606407
  19     -0.46174646384767
  20      0.14551693864787
  21     0.096016565855499
  22    -0.078683804453408
  23     0.031178644811379
  24     -0.11884562694974
  25    0.00018544042874895
  26      0.00184242900979
  27    5.7470488290736e-05
  28    0.0015978291813467
  29     -0.00134044725433
  30    -0.00022278918267648
  31    -0.001883425784188
  32    -0.0049522555905725
  33    -0.012110735836751
  34    -0.0094532742020303
  35    -0.024701384690711
  36    -0.080574295798634
  37     0.072928725850715
  38     -0.02770864806512
  39    -0.078729708553069
  40     0.070917844386667
  41    0.00072504458911393
  42    -0.002099957129187
  43    -0.0011412673295666
  44    0.0011128000532351
  45    0.0018368762945097
  46    -0.00099724033825056
  47    0.0029515374082005
  48    -0.013400585597063
  49     0.014466105710851
  50    -0.0046655903894559
  51    0.0043688509607991
  52    -0.0025493865368791
  53    0.0010423946006423
  54    -0.014013367405043
  55     0.008115105365065
  56    -0.0033440834419942
  57     0.013263301057898
  58    -0.015551065886134
  59     0.013740099813669
  60    -0.001878784951941
  61    7.8200152674288e-05
  62    0.00050362599138773
  63    0.0034024829482209
  64    -0.0022532445933315
  65    -0.0021828916380576
  66      0.00339598134174
  67    0.0016094055784972
  68    0.0020288138457062
  69    -0.0052258597161337
  70    -1.6813314931428e-05
  71    -0.00060519430597051
  72    6.3329954541578e-05
  73    1.259863086863e-05
  74    0.0003724451864294
  75    0.00049413655517012
  76    -0.00070224170066924
  77    -0.0036842559790975
  78     0.024146621756341
  79     -0.03015027262418
  80    -0.030433161737685
  81    -0.010490711919206
  82    -0.027802840103724
  83     0.029951513713135
  84     -0.01749777263375
  85    -0.047315335886979
  86     0.051387892732124
  87     -0.02978544753398
  88    -0.083035102576435
  89     0.091863781408037
  90    -0.0011947047335989
  91    -0.0017922832850759
  92    4.8774475420943e-05
  93    1.041891776861e-05
  94    0.00041264209441118
  95    0.0004907085416753
  96    -0.0031845107765894
  97    0.0034601315522065
  98    0.0058604233519332
  99    -0.00068600737661966
 100    -0.0051535525232014
 101     0.011277395272627
 102    -0.0012071274792901
 103    -0.0089057773395878
 104     0.019222276808974
 105    -0.0027498137925251
 106    -0.013263497745435
 107     0.032102202746129
 108    -0.0008171524876215
 109    0.0004414445000792
 110    0.00034345162139573
 111    -0.00038528308250401
 112    -0.0015494618898935
 113    0.0028928494300764
 114    -0.018835372162988
 115     0.022654912679828
 116     0.025959841714043
 117    0.00049587613977946
 118    -0.029140864562446
 119     0.021810550069305
 120    0.00057243606657447
 121    -0.049168087172426
 122     0.036474007185996
 123    2.9470469074988e-05
 124    -0.088167415333479
 125     0.063881074225745
 126    -0.00070082708068499
 127    0.00026002598147683
 128    0.0001476054535938
 129    -0.0011235027322914
 130    0.0018947674249329
 131    -0.00017049919607446
 132    0.0011401136925148
 133    -0.001725045104348
 134    -0.0024248573020125
 135    -0.00042042230321067
 136    0.0015521388337017
 137    0.00049730744062754
 138    -0.00072036308549559
 139    0.0024571555497783
 140    0.00090432183091673
 141    -0.0020352120628988
 142    0.0065318272294748
 143    0.0020248183160948
 144    -4.313459270032e-05
 145    -0.00031011178173029
 146    0.00012781014117351
 147    5.3133615159065e-05
 148    -0.00031408146525281
 149    0.00018101868868925
 150    -0.0011886126104164
 151    0.00091503143900869
 152    0.0072151148312153
 153    0.0025471171367157
 154    0.00054190482385613
 155    -0.00090445372231219
 156    0.0044513097677092
 157    0.00099375745445259
 158    -0.0017626264133589
 159     0.008326190523952
 160    -0.0001637510172878
 161    0.0010737438329067
 162    0.00015525851910681
 163    0.00028851713292092
 164    -0.00013359621999444
 165    -0.00018912012939672
 166    -0.00016096990902067
 167    -0.00040050709717522
 168    0.0026828483225577
 169    -0.004667435785488
 170    -0.0029472414169032
 171    -0.0033146510060274
 172    -0.0015382442926138
 173    -0.00099051976703301
 174    -0.0058706756883223
 175    -0.0027425884692059
 176    -0.0014937002482376
 177    -0.009479743443984
 178    -0.0053205185133923
 179    -0.004615013868764
 180    -0.00038494983995782
 181    0.00010768424795524
 182    -0.00010945553932248
 183    0.00050855186136748
 184    0.00063950513757526
 Sym= A