[Molden Format]
made by pyscf v[2.1.1]
[Atoms] (AU)
Fe   1   26     3.17068844873907     0.00098706064664     0.12237737881307
O   2   8     0.00000000000000     0.00000000000000    -0.89004350580623
Fe   3   26    -3.17068844873907    -0.00098706064664     0.12237737881307
Cl   4   17     3.53383895113107    -2.07485195383062     3.76228752659000
Cl   5   17     5.54152580550813    -1.85590924879884    -2.78672786652360
Cl   6   17     4.48169216485503     3.92976278472880    -0.95330240907949
Cl   7   17    -3.53383895113107     2.07485195383062     3.76228752659000
Cl   8   17    -5.54152580550813     1.85590924879884    -2.78672786652360
Cl   9   17    -4.48169216485503    -3.92976278472880    -0.95330240907949
[GTO]
1 0
 s    6 1.00
          60923.640643  0.0017552243692958
          9147.8893982   0.013449023284001
          2081.3505927   0.066678874640978
          587.55977067    0.23176348548844
           191.0904399    0.46945550248188
          65.732730112     0.3596824938678
 s    3 1.00
          127.25891928   -0.10723431835929
           14.83091301    0.62971616328466
          6.0653307408    0.44472317896179
 s    3 1.00
           10.44994371   -0.21694289195548
          1.7245228003    0.69457867408393
         0.71772177325    0.43298308896347
 s    1 1.00
        0.091449828308                   1
 s    1 1.00
        0.033706691021                   1
 p    5 1.00
          773.43750995  0.0091440529992506
          182.15149714   0.067887577136571
          57.547272758    0.26167978878504
          20.614988935    0.51088040113251
           7.634855789    0.33235475570224
 p    3 1.00
           3.871932799    0.33193859098144
          1.4924724132     0.5553666555499
         0.56061284958    0.23106034201617
 p    1 1.00
              0.134915                   1
 d    4 1.00
          38.968133419   0.033335938558743
          10.800067078    0.17766212505983
          3.6136457999      0.441281781625
          1.2129967888    0.57089200490673
 d    1 1.00
          0.3652439317                   1
 f    1 1.00
                 1.598                   1

2 0
 s    5 1.00
          2266.1767785  -0.0053893503921743
          340.87010191   -0.04023472138896
          77.363135167   -0.18008184205526
           21.47964494   -0.46828857657651
          6.6589433124   -0.44692617160187
 s    1 1.00
         0.80975975668                   1
 s    1 1.00
         0.25530772234                   1
 p    3 1.00
          17.721504317   0.062630248763161
           3.863550544    0.33331138482352
          1.0480920883    0.74148638308122
 p    1 1.00
         0.27641544411                   1
 d    1 1.00
                   1.2                   1

3 0
 s    6 1.00
          60923.640643  0.0017552243692958
          9147.8893982   0.013449023284001
          2081.3505927   0.066678874640978
          587.55977067    0.23176348548844
           191.0904399    0.46945550248188
          65.732730112     0.3596824938678
 s    3 1.00
          127.25891928   -0.10723431835929
           14.83091301    0.62971616328466
          6.0653307408    0.44472317896179
 s    3 1.00
           10.44994371   -0.21694289195548
          1.7245228003    0.69457867408393
         0.71772177325    0.43298308896347
 s    1 1.00
        0.091449828308                   1
 s    1 1.00
        0.033706691021                   1
 p    5 1.00
          773.43750995  0.0091440529992506
          182.15149714   0.067887577136571
          57.547272758    0.26167978878504
          20.614988935    0.51088040113251
           7.634855789    0.33235475570224
 p    3 1.00
           3.871932799    0.33193859098144
          1.4924724132     0.5553666555499
         0.56061284958    0.23106034201617
 p    1 1.00
              0.134915                   1
 d    4 1.00
          38.968133419   0.033335938558743
          10.800067078    0.17766212505983
          3.6136457999      0.441281781625
          1.2129967888    0.57089200490673
 d    1 1.00
          0.3652439317                   1
 f    1 1.00
                 1.598                   1

4 0
 s    5 1.00
          10449.827566  0.0054265953789407
          1571.7365221   0.040626378128836
          357.12065523    0.18359747852877
          100.25185935    0.47438948768198
          30.812727554    0.43735181104122
 s    3 1.00
          51.923789434  -0.092754154848099
          5.7045760975    0.56380825544207
          2.3508376809    0.50367044629712
 s    1 1.00
         0.44605124672                   1
 s    1 1.00
          0.1684885619                   1
 p    5 1.00
          307.66790569  -0.0088797025588865
          72.102015515  -0.064284071721237
          22.532680262   -0.24288739736006
          7.8991765444   -0.48340836369878
          2.8767268321   -0.38952563875509
 p    1 1.00
         0.77459363955                   1
 p    1 1.00
         0.21037699698                   1
 d    1 1.00
                  0.65                   1

5 0
 s    5 1.00
          10449.827566  0.0054265953789407
          1571.7365221   0.040626378128836
          357.12065523    0.18359747852877
          100.25185935    0.47438948768198
          30.812727554    0.43735181104122
 s    3 1.00
          51.923789434  -0.092754154848099
          5.7045760975    0.56380825544207
          2.3508376809    0.50367044629712
 s    1 1.00
         0.44605124672                   1
 s    1 1.00
          0.1684885619                   1
 p    5 1.00
          307.66790569  -0.0088797025588865
          72.102015515  -0.064284071721237
          22.532680262   -0.24288739736006
          7.8991765444   -0.48340836369878
          2.8767268321   -0.38952563875509
 p    1 1.00
         0.77459363955                   1
 p    1 1.00
         0.21037699698                   1
 d    1 1.00
                  0.65                   1

6 0
 s    5 1.00
          10449.827566  0.0054265953789407
          1571.7365221   0.040626378128836
          357.12065523    0.18359747852877
          100.25185935    0.47438948768198
          30.812727554    0.43735181104122
 s    3 1.00
          51.923789434  -0.092754154848099
          5.7045760975    0.56380825544207
          2.3508376809    0.50367044629712
 s    1 1.00
         0.44605124672                   1
 s    1 1.00
          0.1684885619                   1
 p    5 1.00
          307.66790569  -0.0088797025588865
          72.102015515  -0.064284071721237
          22.532680262   -0.24288739736006
          7.8991765444   -0.48340836369878
          2.8767268321   -0.38952563875509
 p    1 1.00
         0.77459363955                   1
 p    1 1.00
         0.21037699698                   1
 d    1 1.00
                  0.65                   1

7 0
 s    5 1.00
          10449.827566  0.0054265953789407
          1571.7365221   0.040626378128836
          357.12065523    0.18359747852877
          100.25185935    0.47438948768198
          30.812727554    0.43735181104122
 s    3 1.00
          51.923789434  -0.092754154848099
          5.7045760975    0.56380825544207
          2.3508376809    0.50367044629712
 s    1 1.00
         0.44605124672                   1
 s    1 1.00
          0.1684885619                   1
 p    5 1.00
          307.66790569  -0.0088797025588865
          72.102015515  -0.064284071721237
          22.532680262   -0.24288739736006
          7.8991765444   -0.48340836369878
          2.8767268321   -0.38952563875509
 p    1 1.00
         0.77459363955                   1
 p    1 1.00
         0.21037699698                   1
 d    1 1.00
                  0.65                   1

8 0
 s    5 1.00
          10449.827566  0.0054265953789407
          1571.7365221   0.040626378128836
          357.12065523    0.18359747852877
          100.25185935    0.47438948768198
          30.812727554    0.43735181104122
 s    3 1.00
          51.923789434  -0.092754154848099
          5.7045760975    0.56380825544207
          2.3508376809    0.50367044629712
 s    1 1.00
         0.44605124672                   1
 s    1 1.00
          0.1684885619                   1
 p    5 1.00
          307.66790569  -0.0088797025588865
          72.102015515  -0.064284071721237
          22.532680262   -0.24288739736006
          7.8991765444   -0.48340836369878
          2.8767268321   -0.38952563875509
 p    1 1.00
         0.77459363955                   1
 p    1 1.00
         0.21037699698                   1
 d    1 1.00
                  0.65                   1

9 0
 s    5 1.00
          10449.827566  0.0054265953789407
          1571.7365221   0.040626378128836
          357.12065523    0.18359747852877
          100.25185935    0.47438948768198
          30.812727554    0.43735181104122
 s    3 1.00
          51.923789434  -0.092754154848099
          5.7045760975    0.56380825544207
          2.3508376809    0.50367044629712
 s    1 1.00
         0.44605124672                   1
 s    1 1.00
          0.1684885619                   1
 p    5 1.00
          307.66790569  -0.0088797025588865
          72.102015515  -0.064284071721237
          22.532680262   -0.24288739736006
          7.8991765444   -0.48340836369878
          2.8767268321   -0.38952563875509
 p    1 1.00
         0.77459363955                   1
 p    1 1.00
         0.21037699698                   1
 d    1 1.00
                  0.65                   1

[5d]
[7f]
[9g]

[MO]
 Sym= A
 Ene=               0
 Spin= Alpha
 Occup=    1.00000
   1    -0.0050054519619853
   2    0.0096549331610874
   3    -0.087854721001414
   4     -0.12440233773509
   5     0.042023289503999
   6     0.037422327126568
   7    0.00089714347762353
   8     0.016658348692692
   9     -0.12484848779579
  10    -0.0027763145165017
  11    -0.054493573017944
  12    -0.049187078089564
  13    0.00032548099263719
  14    -0.017984590344149
  15    -0.0073179248540634
  16    0.0097850565584064
  17    0.0089117080610528
  18     0.011251064093757
  19    0.00097467838667693
  20    -0.0070507932677834
  21     0.011251364431246
  22     0.006717606173531
  23     0.013174244336953
  24    0.00070509838192876
  25    -0.00082265530071322
  26    -0.00050003460681059
  27    0.0014377014068572
  28    0.00032937177233729
  29    -0.00025670894181633
  30    0.00072199910900578
  31    0.00050068102439712
  32    2.0702156537684e-05
  33    4.1186177141434e-05
  34    5.9332206604994e-05
  35    -0.0074819960407645
  36    0.00038415610919583
  37    -3.6831736538654e-06
  38    -0.027183867188847
  39    0.0015761459504868
  40    1.4686596032578e-06
  41    1.2617682574095e-06
  42    -0.0014645281637777
  43    7.9294766684014e-05
  44    -2.1035491653726e-06
  45    -5.6025086495449e-08
  46    0.0050060155813429
  47    -0.009656304683277
  48     0.087863690481308
  49      0.12438183963988
  50    -0.042021158910616
  51     0.037434174872138
  52    0.00089793322462009
  53    -0.016659244971112
  54     -0.12488446818882
  55    -0.0027787619096028
  56     0.054496054783863
  57    -0.049157477463159
  58    0.00032805667161962
  59     0.017980993144612
  60    0.0074041517366524
  61     0.010275243807861
  62    0.0089500903116046
  63    -0.011609726666157
  64    -0.00095996489048195
  65    0.0070750601382133
  66     0.011382381587846
  67    0.0067275277752093
  68    -0.013271313283417
  69    -0.00070161171013022
  70    0.00082364221311361
  71    -0.00049971105142071
  72    0.0014375001879545
  73    -0.00033116784872628
  74    0.0002564306305519
  75    0.0007231215502912
  76    0.00050051930507085
  77    -0.0076261268814148
  78     0.053285749441565
  79     -0.11379944380523
  80     -0.06170037710736
  81    -0.0062772075757114
  82    -0.019697149032663
  83     0.028755380483384
  84    -0.0096806674475015
  85    -0.041522705276475
  86      0.06322818436848
  87    -0.014162964608551
  88    -0.055244088733075
  89     0.081878264095586
  90    -0.0057578510445294
  91    3.1881615603398e-05
  92    0.0072693977511577
  93    0.0024012468740251
  94    2.3309525531483e-06
  95    -0.0073951995700526
  96     0.051954693119585
  97     -0.11234866197016
  98    -0.064958394207508
  99    0.0095479821591117
 100    -0.012306952573258
 101    -0.026095040391218
 102     0.025333792104823
 103    -0.028605628815795
 104    -0.055892063091651
 105     0.034135235726275
 106    -0.035214536949086
 107    -0.074216935008403
 108    -0.0032090936134535
 109    0.0059933512016501
 110    -0.0052018004859312
 111    -0.00026251561033147
 112    0.0034940930926468
 113    -0.0069357363092385
 114     0.048697583517933
 115     -0.10505997898947
 116    -0.061288589530051
 117    0.00067640706980678
 118     0.027342286777371
 119    -0.014601337217486
 120     0.005595210622979
 121     0.061115869066131
 122    -0.028379399521832
 123    0.0074529207933718
 124     0.079860539592315
 125    -0.041430111321268
 126      0.00272717298868
 127    0.0010503574665328
 128    0.0042673908244376
 129    0.0059665333310573
 130    -0.0028763983147616
 131    0.0076257695958153
 132    -0.053283396765813
 133      0.11379582160288
 134     0.061701817621001
 135    -0.0062978177785031
 136     -0.01970007794198
 137    -0.028751023471406
 138    -0.0097155765930505
 139     -0.04152756414801
 140    -0.063220581066621
 141    -0.014221340131184
 142    -0.055253117351422
 143    -0.081867510078773
 144    0.0057580765594646
 145    2.9912911772615e-05
 146    0.0072688693876207
 147    -0.002401037372066
 148    -3.6251852159133e-06
 149    0.0073937862781356
 150    -0.051945449723688
 151      0.11233704342985
 152     0.064950857139941
 153    0.0095321414875525
 154    -0.012300151671949
 155     0.026088678330541
 156     0.025307092688799
 157    -0.028594012567936
 158     0.055881024415258
 159     0.034088526586007
 160    -0.035195114076512
 161     0.074198892129277
 162    0.0032084488477043
 163    0.0059932339585183
 164    -0.0052010332514139
 165    0.00026225406104242
 166    -0.0034938741359064
 167    0.0069344059458377
 168    -0.048688911698811
 169      0.10504910272811
 170     0.061281468685691
 171    0.00066388461427123
 172      0.02732942370493
 173     0.014602048315889
 174    0.0055741495025478
 175     0.061094018695652
 176     0.028380565182983
 177    0.0074165024897489
 178     0.079823826111395
 179     0.041431926043003
 180    -0.0027270308939743
 181    0.0010506378537055
 182    0.0042665149048382
 183    -0.0059658678848506
 184     0.002876560873329
 Sym= A
 Ene=               1
 Spin= Alpha
 Occup=    1.00000
   1    -0.0012554000004164
   2    0.0037393445946324
   3    -0.016679442327646
   4     0.031469924968346
   5    -0.013715087962748
   6    -0.00070337305132771
   7    -0.0014769748831971
   8    0.0047904992122211
   9    0.0022286284775505
  10    0.0046616112552482
  11     -0.01486736597631
  12    -0.0019463165142965
  13    -0.0054815817906034
  14     0.021015858964109
  15     -0.20065921189218
  16       0.4796164224871
  17      0.48255060327015
  18     -0.43407901352507
  19     -0.28061352016211
  20    -0.053775777141188
  21      0.12876124676276
  22        0.130618299008
  23     -0.11791583460343
  24    -0.075481067002064
  25    -0.0010542406887273
  26     0.001040266648603
  27    0.00097664132296694
  28    0.00024093282978447
  29    0.00029688334543181
  30    -0.00087401385120824
  31    -0.00056382685520548
  32    -0.0017002566767346
  33    -0.0044006725642258
  34    -0.0021706960539501
  35    -0.0077839933626844
  36     -0.01235751990146
  37     0.042659154943407
  38    -0.009525626257004
  39    -0.013601970291396
  40     0.046768283619244
  41    9.7255916344487e-05
  42    -0.0011888846753545
  43    0.00022483942495127
  44    0.00012439001409887
  45    0.00019450950728331
  46    -0.00051448866021523
  47    0.0015454941416785
  48    -0.0068141981405322
  49    0.0068734250297953
  50    -0.0011031973832924
  51    0.0024607332455341
  52    -0.00051997822040397
  53    0.00081030262732393
  54    -0.0078607365845675
  55    0.0016519792789173
  56    -0.0025732125368336
  57    0.0061390221156617
  58    -0.0028558373264034
  59    0.0077939993406474
  60    -0.00081913128839113
  61    -0.00013205729950048
  62    5.4817034619461e-05
  63    0.0015968765278594
  64    -0.00020399833581841
  65    -0.0011215609816985
  66    0.0018832076832537
  67    0.00013924937118101
  68    0.00056330214539193
  69    -0.00066526142979414
  70    -4.3605000781184e-05
  71    -0.00036307081256013
  72    -1.5726591699297e-05
  73    8.2099593152488e-05
  74    5.836487262949e-05
  75    0.0002622123911109
  76    -0.00010996969909528
  77    0.0013798822992636
  78    -0.0090539844814205
  79     0.011522978867705
  80      0.00674401621556
  81    -0.018087577890531
  82    0.0080311889649943
  83    -0.010042396426841
  84    -0.030684014796999
  85     0.013857362015824
  86    -0.017508219421873
  87    -0.050557055090725
  88     0.022301993250827
  89    -0.027989397256205
  90    0.00049698830450694
  91    -0.0019952382847169
  92    0.00044191779395983
  93    -0.00088911918894844
  94    0.0012562954900299
  95    -7.6013802934536e-05
  96    0.00051658104378334
  97    -0.0021264345168773
  98    0.0043613195369781
  99     0.011766119090526
 100      0.02571189870856
 101    -0.0079810216210988
 102     0.019857445774847
 103     0.043349965888963
 104    -0.013298931948198
 105     0.031849371823223
 106     0.073834846695802
 107    -0.022187518689981
 108    0.00069854537050463
 109    -0.0013569708477922
 110    -0.0016643235595172
 111    0.0020624305103546
 112    0.0012610274269691
 113    -0.0001942814743624
 114    0.0012852652334823
 115    -0.0029577396480664
 116    0.0024976586666385
 117     0.013220901148157
 118    -0.0078142585478599
 119    -0.021906669942584
 120      0.02216567124632
 121    -0.013183377749973
 122     -0.03676000346119
 123     0.037074459303655
 124    -0.023072673216223
 125    -0.062045670087905
 126    0.00098434733533777
 127    -0.0012684731023058
 128    -0.0015450469152969
 129    0.0016793284405676
 130    0.00081611939616276
 131    -0.00020732289944127
 132    0.0013962671790377
 133    -0.0025709615857802
 134    -0.001295666065602
 135    -0.001524688834897
 136    0.00078919980649663
 137    0.00072166035588069
 138    -0.0028074122096377
 139    0.0013466675548443
 140    0.0012454902458023
 141    -0.0036536546800939
 142    0.0030429924049139
 143    0.0028408662753725
 144    -9.4061042461649e-05
 145    -0.00028945818512493
 146    5.994986728139e-05
 147    0.0001598186535675
 148    -0.00023155652858067
 149    8.8998015808937e-05
 150    -0.00058969992493939
 151    0.00057538058746409
 152    0.0030730311317831
 153    0.0011079471652991
 154    5.1542939002587e-05
 155    -0.00065308517398913
 156      0.00193367937185
 157    0.00012406004863972
 158    -0.0011573006354754
 159    0.0036737694292603
 160    -0.00078690132058445
 161    -0.00048111470964653
 162    3.0800359765031e-05
 163    0.00014327142124036
 164    -4.883449611956e-05
 165    -7.5954281744143e-05
 166    -3.8072667045932e-05
 167    -8.7608438714402e-05
 168    0.00058983873545913
 169    -0.0012150787791231
 170    0.00028364943290296
 171    -0.00071926623847603
 172    -0.00034763504610104
 173    -0.00076110134205916
 174    -0.0013063108828604
 175    -0.00061758084560486
 176    -0.0012529558913758
 177    -0.001863874362411
 178    -0.00081350744525389
 179    -0.0025635737998197
 180    -0.00010120284801336
 181    0.00012639005772793
 182    1.4096782050776e-05
 183    9.5378698588219e-05
 184    0.00017726260694874
 Sym= A
 Ene=               2
 Spin= Alpha
 Occup=    1.00000
   1    -0.00082657642506267
   2    0.0024629751011246
   3    -0.010973173233664
   4     0.021162345996213
   5    -0.0072945705439448
   6    -5.8355473544407e-05
   7     0.006503496445367
   8    0.0032876458421213
   9    0.00015946046273996
  10     -0.01997967717304
  11    -0.010031728250511
  12    0.0012541550569789
  13     0.026944923646413
  14     0.015066169131599
  15      0.52521189127799
  16      0.15541640144071
  17      0.46426720340632
  18      0.13038097444448
  19      0.48797630740516
  20      0.14123315444106
  21     0.041103900273604
  22      0.12480711522459
  23     0.034526927152835
  24      0.12990886022799
  25    0.00060404557224596
  26     0.001326001094845
  27    0.00055964519155294
  28    0.00065974662715297
  29    0.0016819523560706
  30    8.949839863245e-05
  31    0.0014675031593202
  32    -0.0020923472915679
  33    -0.0052793534246153
  34    -0.002559466953669
  35    -0.0083376762436189
  36     0.065017523952135
  37     0.036450403253676
  38    -0.010264296073145
  39     0.070756864065444
  40     0.040164423514695
  41    0.00053795914070121
  42    -0.0012247375288303
  43    0.00098971905417973
  44    0.00050247297034819
  45    -0.0016934884247318
  46    -0.00050582745866109
  47    0.0015068153550443
  48     -0.00675410845053
  49    0.0077796489700954
  50    -0.0018836898158756
  51    0.0022112267297075
  52    0.0022087611668738
  53    0.00048261541559907
  54    -0.0070674300957319
  55    -0.0070138108479884
  56    -0.0015335642720474
  57    0.0050027029220494
  58     0.012885604049367
  59    0.0062514031631975
  60    -0.00079621998184096
  61    -0.00048688743279996
  62    4.2905627741827e-05
  63    0.0013541253146725
  64    0.00048596252137204
  65    -0.0009673197058865
  66    0.0016467574299221
  67    -0.00098794532785396
  68    0.00036007196734817
  69    0.0040772817824548
  70    -1.5263186413161e-05
  71    -0.00030921719978552
  72    -0.00013259879323631
  73    0.00010348568703675
  74    -0.00032406403237273
  75    0.00025050403387282
  76    0.00061201949857829
  77    8.5834349739553e-05
  78    -0.00056074741737293
  79    0.00023784661345226
  80    0.00094034545569763
  81    0.0031608095486062
  82    -0.022860045043822
  83    -0.013965584461521
  84    0.0053142914241091
  85    -0.038555854235987
  86    -0.023687221548446
  87    0.0089662645693067
  88    -0.065334140268539
  89    -0.039896067090411
  90    -0.0025862245130247
  91    0.00044654057750772
  92    -0.0013245634703175
  93    -0.0014305355904413
  94    -0.00010457344382143
  95    -0.00042403819749442
  96    0.0028309496128226
  97    -0.0052534819449893
  98    0.0032737864900168
  99     0.016208930828139
 100    -0.0098584067967638
 101     0.013867119303931
 102     0.027515209294482
 103    -0.016551349919327
 104     0.023314233287334
 105     0.043842691744067
 106    -0.028266736735755
 107     0.040214792700204
 108    -0.0024326185202056
 109    -3.2313696735969e-05
 110    -3.7938704578743e-08
 111    0.00089976180540971
 112    -0.0012602672411125
 113    0.0010970581457659
 114    -0.0071928288307229
 115    0.0095429425343451
 116    0.0034337841957566
 117    -0.015799337935722
 118    -0.0090444904473231
 119    -0.0077798330014557
 120    -0.026678603189482
 121     -0.01552550708289
 122     -0.01303587954487
 123    -0.044058870790187
 124    -0.025069964452945
 125    -0.022581351174803
 126    0.0009677699109824
 127    0.00022136984280986
 128    -0.0011651334006681
 129    -0.00083177236174294
 130    -0.001202747615542
 131    -0.00027409659784794
 132    0.0018077084100083
 133    -0.002362322738077
 134    -0.0048943001633361
 135    -0.0024028250866271
 136    -6.3498811592719e-05
 137    0.0018809259040173
 138    -0.0042037867656138
 139    -0.00016593063946158
 140    0.0031763029114081
 141    -0.0064740022508572
 142    0.0010101680714684
 143     0.007638921605236
 144    -2.4897931245954e-05
 145    -0.00048636600808865
 146    -4.2918935629515e-05
 147    0.00026584138142791
 148    -7.5757445918106e-05
 149    -8.700817991168e-05
 150    0.00058074659342203
 151    -0.0010910752272414
 152    -6.4862034954413e-05
 153    -0.00085106741939304
 154    -0.00046843216589953
 155    -0.00074773447873736
 156    -0.0015163889230858
 157    -0.00069102917747283
 158    -0.0011901943373262
 159    -0.0023333568428433
 160    -0.0022361060907765
 161    -0.0026742279733568
 162    -0.00016190936722578
 163    0.00012137380602081
 164    -1.8956331716018e-05
 165    0.00011792010606279
 166    1.4070914231752e-05
 167    0.00027872045953314
 168    -0.0018539402878675
 169    0.0027512387879137
 170    0.0042405670858875
 171    0.0030522488598076
 172    0.00088397832591059
 173    -0.0008126895536633
 174    0.0054643716943213
 175    0.0015041231813864
 176    -0.0014611162979997
 177    0.0078295503957893
 178    0.0045468438797115
 179    -0.001381839091566
 180    0.00010486038237529
 181    0.00021320271636257
 182    0.00017111694538797
 183    -0.00048924117494924
 184    -0.00015660166712283
 Sym= A
 Ene=               3
 Spin= Alpha
 Occup=    1.00000
   1    0.00061336253281052
   2    -0.0018252284018258
   3    0.0081651191657464
   4    -0.0096882455367203
   5    -0.0017126460088818
   6    0.0023199483039015
   7    0.0045108716839645
   8    -0.0042287974855652
   9    -0.0071940851478947
  10    -0.014272161429234
  11      0.01346929312909
  12    0.0067729255283304
  13    0.0087526399668719
  14    -0.0070792027619992
  15      0.55667327000582
  16      0.37380930127345
  17     -0.30183067155875
  18      0.11313723872845
  19     -0.46341842749533
  20      0.14593886460586
  21     0.096640498362932
  22    -0.078941386620211
  23      0.03090112632167
  24     -0.11977309233802
  25    0.00020595765739841
  26    0.0018054585689802
  27    4.5755355940219e-05
  28    0.0015649154736206
  29    -0.0013137931021151
  30    -0.00020919677680868
  31    -0.0018279929484116
  32    -0.0047042351136451
  33    -0.011115181574058
  34    -0.0089471058393308
  35    -0.022185136073117
  36    -0.068810953957439
  37      0.06263781621747
  38    -0.027825836602719
  39    -0.076216380681179
  40     0.068952265092806
  41    0.00056720622334585
  42    -0.0020654052623438
  43    -0.00098367427061486
  44    0.0011234995022549
  45      0.00183551729314
  46    -0.00097718107902736
  47    0.0029085291195008
  48    -0.013067080002437
  49     0.013276668304227
  50    -0.0042641641882814
  51    0.0044288685330439
  52    -0.0025298307214561
  53    0.00099520766862883
  54    -0.014220744227009
  55    0.0080341374195568
  56    -0.0031716887298678
  57     0.012241025507155
  58    -0.014186386549864
  59     0.012718740866636
  60    -0.0015154426790976
  61    -0.0011317405139868
  62    0.00018269114700197
  63    0.0030636611706568
  64    -0.00054109590956268
  65    -0.0018333922510671
  66    0.0028027149820957
  67     0.001396919602445
  68    0.0016879613156085
  69    -0.0042780216711274
  70    -1.2573154420373e-05
  71    -0.00055929212431003
  72    6.0358784921021e-05
  73    6.3479765882055e-06
  74    0.0003467077592799
  75    0.00045587215451287
  76    -0.00064467610279407
  77    -0.003670194175237
  78      0.02404753019361
  79    -0.029963445224661
  80    -0.030014227126585
  81    -0.010519475761655
  82    -0.027788153519791
  83     0.029912930207028
  84    -0.017577066452354
  85    -0.047290326746475
  86     0.051321987708682
  87    -0.029846483064021
  88    -0.082870202214431
  89     0.091460727675214
  90    -0.0011785287904564
  91    -0.0018606960663912
  92    3.0164702298591e-05
  93    -2.8830046833588e-05
  94    0.00043536213181206
  95    0.00049549442934451
  96    -0.003217663174302
  97    0.0035578770705144
  98    0.0057088584423805
  99    -0.00071305552656696
 100    -0.0051491319727946
 101     0.011300459102226
 102    -0.0012543811008033
 103    -0.0088771550927122
 104     0.019261237852907
 105    -0.0027948789987103
 106    -0.013430830396637
 107     0.032190797919289
 108    -0.00081731071817805
 109    0.00044475406119361
 110    0.00033358310535397
 111    -0.0003711709155157
 112    -0.0015685294211534
 113    0.0028944099356879
 114    -0.018842914483072
 115     0.022710353562835
 116      0.02550465165062
 117    0.00045555608475889
 118     -0.02917310887347
 119     0.021814938598511
 120    0.00052608421146712
 121    -0.049246668026251
 122     0.036491005997373
 123    -4.1468013057597e-05
 124    -0.087917602889994
 125     0.063840233735256
 126    -0.00072789037941223
 127    0.00027300027332584
 128    0.00017653124949524
 129    -0.0010677430603445
 130    0.0019667427116961
 131    -0.00014159324701629
 132    0.00093943541546659
 133    -0.001296671679837
 134    -0.0022479659197015
 135    -0.00037323341710662
 136    0.0014504880276599
 137    0.00037842486774012
 138    -0.00063770804438639
 139    0.0022765698339265
 140    0.00065556107657689
 141    -0.0018401433204415
 142     0.006091992981169
 143    0.0017156306325967
 144    -2.5039551426295e-05
 145    -0.00029984663004405
 146    0.00013552338911264
 147    3.7869522703383e-05
 148    -0.0002891722823081
 149    0.00020077476599114
 150    -0.0013265407430614
 151    0.0012783820651985
 152     0.006832614326146
 153    0.0026497746919901
 154    0.00049729173189509
 155    -0.00084853261888095
 156    0.0046396288012534
 157    0.00089502591528154
 158    -0.0016176459042191
 159    0.0084739635421722
 160    -0.00019739300276893
 161    0.00098931010089197
 162    0.00011973057419421
 163    0.00029621808518141
 164    -0.00012382402738063
 165    -0.00015123426560486
 166    -0.00016786651206897
 167    -0.00037237124690763
 168    0.0024845743252477
 169    -0.0042197813837718
 170    -0.0027070086053994
 171    -0.0032591282072655
 172    -0.0014188021695533
 173    -0.0009319094597598
 174    -0.0057523060798841
 175    -0.0024983472110992
 176    -0.0013990421123059
 177    -0.0092475550675049
 178    -0.0048973696350535
 179    -0.0043044571872785
 180    -0.00035881715834541
 181    9.4333049473607e-05
 182    -8.977220107548e-05
 183    0.00045236294592224