[Molden Format]
made by pyscf v[2.1.1]
[Atoms] (AU)
Fe   1   26     3.17068844873907     0.00098706064664     0.12237737881307
O   2   8     0.00000000000000     0.00000000000000    -0.89004350580623
Fe   3   26    -3.17068844873907    -0.00098706064664     0.12237737881307
Cl   4   17     3.53383895113107    -2.07485195383062     3.76228752659000
Cl   5   17     5.54152580550813    -1.85590924879884    -2.78672786652360
Cl   6   17     4.48169216485503     3.92976278472880    -0.95330240907949
Cl   7   17    -3.53383895113107     2.07485195383062     3.76228752659000
Cl   8   17    -5.54152580550813     1.85590924879884    -2.78672786652360
Cl   9   17    -4.48169216485503    -3.92976278472880    -0.95330240907949
[GTO]
1 0
 s    6 1.00
          60923.640643  0.0017552243692958
          9147.8893982   0.013449023284001
          2081.3505927   0.066678874640978
          587.55977067    0.23176348548844
           191.0904399    0.46945550248188
          65.732730112     0.3596824938678
 s    3 1.00
          127.25891928   -0.10723431835929
           14.83091301    0.62971616328466
          6.0653307408    0.44472317896179
 s    3 1.00
           10.44994371   -0.21694289195548
          1.7245228003    0.69457867408393
         0.71772177325    0.43298308896347
 s    1 1.00
        0.091449828308                   1
 s    1 1.00
        0.033706691021                   1
 p    5 1.00
          773.43750995  0.0091440529992506
          182.15149714   0.067887577136571
          57.547272758    0.26167978878504
          20.614988935    0.51088040113251
           7.634855789    0.33235475570224
 p    3 1.00
           3.871932799    0.33193859098144
          1.4924724132     0.5553666555499
         0.56061284958    0.23106034201617
 p    1 1.00
              0.134915                   1
 d    4 1.00
          38.968133419   0.033335938558743
          10.800067078    0.17766212505983
          3.6136457999      0.441281781625
          1.2129967888    0.57089200490673
 d    1 1.00
          0.3652439317                   1
 f    1 1.00
                 1.598                   1

2 0
 s    5 1.00
          2266.1767785  -0.0053893503921743
          340.87010191   -0.04023472138896
          77.363135167   -0.18008184205526
           21.47964494   -0.46828857657651
          6.6589433124   -0.44692617160187
 s    1 1.00
         0.80975975668                   1
 s    1 1.00
         0.25530772234                   1
 p    3 1.00
          17.721504317   0.062630248763161
           3.863550544    0.33331138482352
          1.0480920883    0.74148638308122
 p    1 1.00
         0.27641544411                   1
 d    1 1.00
                   1.2                   1

3 0
 s    6 1.00
          60923.640643  0.0017552243692958
          9147.8893982   0.013449023284001
          2081.3505927   0.066678874640978
          587.55977067    0.23176348548844
           191.0904399    0.46945550248188
          65.732730112     0.3596824938678
 s    3 1.00
          127.25891928   -0.10723431835929
           14.83091301    0.62971616328466
          6.0653307408    0.44472317896179
 s    3 1.00
           10.44994371   -0.21694289195548
          1.7245228003    0.69457867408393
         0.71772177325    0.43298308896347
 s    1 1.00
        0.091449828308                   1
 s    1 1.00
        0.033706691021                   1
 p    5 1.00
          773.43750995  0.0091440529992506
          182.15149714   0.067887577136571
          57.547272758    0.26167978878504
          20.614988935    0.51088040113251
           7.634855789    0.33235475570224
 p    3 1.00
           3.871932799    0.33193859098144
          1.4924724132     0.5553666555499
         0.56061284958    0.23106034201617
 p    1 1.00
              0.134915                   1
 d    4 1.00
          38.968133419   0.033335938558743
          10.800067078    0.17766212505983
          3.6136457999      0.441281781625
          1.2129967888    0.57089200490673
 d    1 1.00
          0.3652439317                   1
 f    1 1.00
                 1.598                   1

4 0
 s    5 1.00
          10449.827566  0.0054265953789407
          1571.7365221   0.040626378128836
          357.12065523    0.18359747852877
          100.25185935    0.47438948768198
          30.812727554    0.43735181104122
 s    3 1.00
          51.923789434  -0.092754154848099
          5.7045760975    0.56380825544207
          2.3508376809    0.50367044629712
 s    1 1.00
         0.44605124672                   1
 s    1 1.00
          0.1684885619                   1
 p    5 1.00
          307.66790569  -0.0088797025588865
          72.102015515  -0.064284071721237
          22.532680262   -0.24288739736006
          7.8991765444   -0.48340836369878
          2.8767268321   -0.38952563875509
 p    1 1.00
         0.77459363955                   1
 p    1 1.00
         0.21037699698                   1
 d    1 1.00
                  0.65                   1

5 0
 s    5 1.00
          10449.827566  0.0054265953789407
          1571.7365221   0.040626378128836
          357.12065523    0.18359747852877
          100.25185935    0.47438948768198
          30.812727554    0.43735181104122
 s    3 1.00
          51.923789434  -0.092754154848099
          5.7045760975    0.56380825544207
          2.3508376809    0.50367044629712
 s    1 1.00
         0.44605124672                   1
 s    1 1.00
          0.1684885619                   1
 p    5 1.00
          307.66790569  -0.0088797025588865
          72.102015515  -0.064284071721237
          22.532680262   -0.24288739736006
          7.8991765444   -0.48340836369878
          2.8767268321   -0.38952563875509
 p    1 1.00
         0.77459363955                   1
 p    1 1.00
         0.21037699698                   1
 d    1 1.00
                  0.65                   1

6 0
 s    5 1.00
          10449.827566  0.0054265953789407
          1571.7365221   0.040626378128836
          357.12065523    0.18359747852877
          100.25185935    0.47438948768198
          30.812727554    0.43735181104122
 s    3 1.00
          51.923789434  -0.092754154848099
          5.7045760975    0.56380825544207
          2.3508376809    0.50367044629712
 s    1 1.00
         0.44605124672                   1
 s    1 1.00
          0.1684885619                   1
 p    5 1.00
          307.66790569  -0.0088797025588865
          72.102015515  -0.064284071721237
          22.532680262   -0.24288739736006
          7.8991765444   -0.48340836369878
          2.8767268321   -0.38952563875509
 p    1 1.00
         0.77459363955                   1
 p    1 1.00
         0.21037699698                   1
 d    1 1.00
                  0.65                   1

7 0
 s    5 1.00
          10449.827566  0.0054265953789407
          1571.7365221   0.040626378128836
          357.12065523    0.18359747852877
          100.25185935    0.47438948768198
          30.812727554    0.43735181104122
 s    3 1.00
          51.923789434  -0.092754154848099
          5.7045760975    0.56380825544207
          2.3508376809    0.50367044629712
 s    1 1.00
         0.44605124672                   1
 s    1 1.00
          0.1684885619                   1
 p    5 1.00
          307.66790569  -0.0088797025588865
          72.102015515  -0.064284071721237
          22.532680262   -0.24288739736006
          7.8991765444   -0.48340836369878
          2.8767268321   -0.38952563875509
 p    1 1.00
         0.77459363955                   1
 p    1 1.00
         0.21037699698                   1
 d    1 1.00
                  0.65                   1

8 0
 s    5 1.00
          10449.827566  0.0054265953789407
          1571.7365221   0.040626378128836
          357.12065523    0.18359747852877
          100.25185935    0.47438948768198
          30.812727554    0.43735181104122
 s    3 1.00
          51.923789434  -0.092754154848099
          5.7045760975    0.56380825544207
          2.3508376809    0.50367044629712
 s    1 1.00
         0.44605124672                   1
 s    1 1.00
          0.1684885619                   1
 p    5 1.00
          307.66790569  -0.0088797025588865
          72.102015515  -0.064284071721237
          22.532680262   -0.24288739736006
          7.8991765444   -0.48340836369878
          2.8767268321   -0.38952563875509
 p    1 1.00
         0.77459363955                   1
 p    1 1.00
         0.21037699698                   1
 d    1 1.00
                  0.65                   1

9 0
 s    5 1.00
          10449.827566  0.0054265953789407
          1571.7365221   0.040626378128836
          357.12065523    0.18359747852877
          100.25185935    0.47438948768198
          30.812727554    0.43735181104122
 s    3 1.00
          51.923789434  -0.092754154848099
          5.7045760975    0.56380825544207
          2.3508376809    0.50367044629712
 s    1 1.00
         0.44605124672                   1
 s    1 1.00
          0.1684885619                   1
 p    5 1.00
          307.66790569  -0.0088797025588865
          72.102015515  -0.064284071721237
          22.532680262   -0.24288739736006
          7.8991765444   -0.48340836369878
          2.8767268321   -0.38952563875509
 p    1 1.00
         0.77459363955                   1
 p    1 1.00
         0.21037699698                   1
 d    1 1.00
                  0.65                   1

[5d]
[7f]
[9g]

[MO]
 Sym= A
 Ene=               0
 Spin= Alpha
 Occup=    1.00000
   1     0.011412877706027
   2    -0.030337827142213
   3      0.16806088452248
   4      0.17469706400341
   5    -0.043839602107191
   6    0.0017424748647442
   7    -0.0003678415069597
   8    0.00094111837909619
   9    -0.0059388486154003
  10    0.0011047619617167
  11    -0.0032047903640973
  12     0.012650657912277
  13    0.0025056830432029
  14    0.00095248135754081
  15    -0.0057553096400308
  16    -0.0054477112733287
  17    -0.0086773829296725
  18     0.010034600801604
  19    -0.0012056271725872
  20    -0.00046998900833409
  21    -0.0049102736838408
  22    -0.0050993321052722
  23    0.00099971503030923
  24    -0.00065282437460619
  25    0.0017586967657258
  26    0.0015674698577997
  27    -0.0014358562719394
  28    -0.0015737202712565
  29    0.00028674404027132
  30    -0.0027096887134743
  31    -0.00051505193441603
  32     0.093722677310625
  33       0.3526822233984
  34      0.28440280757767
  35    5.762609502109e-16
  36    -2.9991909980824e-16
  37     0.056214355414068
  38    4.9481139008199e-16
  39    -2.5992325541807e-16
  40     0.058731465643558
  41    -0.0036216315638113
  42    1.6697999891219e-17
  43    -6.0697965767556e-18
  44     0.010815052371789
  45    -3.5394877464667e-05
  46     0.011412877706027
  47    -0.030337827142213
  48      0.16806088452248
  49      0.17469706400341
  50    -0.043839602107191
  51    -0.0017424748647443
  52    0.00036784150695979
  53    0.00094111837909616
  54    0.0059388486154005
  55    -0.0011047619617167
  56    -0.0032047903640973
  57    -0.012650657912277
  58    -0.002505683043203
  59    0.00095248135754079
  60    -0.0057553096400307
  61    0.0054477112733289
  62    0.0086773829296725
  63     0.010034600801603
  64    -0.0012056271725873
  65    -0.00046998900833404
  66    0.0049102736838409
  67    0.0050993321052723
  68    0.00099971503030914
  69    -0.00065282437460627
  70    0.0017586967657258
  71    -0.0015674698577997
  72    0.0014358562719394
  73    -0.0015737202712565
  74    0.00028674404027132
  75    0.0027096887134743
  76    0.00051505193441602
  77    0.0071959330349454
  78    -0.049462891118914
  79     0.096379917843208
  80     0.061350743156225
  81    -0.0064938880898435
  82     0.018614121779544
  83    -0.030301935075931
  84    -0.012079451247766
  85     0.037758541977995
  86    -0.062673025891264
  87    -0.020386397254825
  88     0.052049073092329
  89    -0.083941149749407
  90    0.0061888617402812
  91    0.0016170607084939
  92    -0.0078700773557181
  93    -0.0021163331189054
  94    -0.0010197276422541
  95    0.0070339215406907
  96    -0.048571205671696
  97     0.098852806079706
  98      0.05145182758342
  99    -0.022330658308595
 100     0.013177771698805
 101     0.023110351972355
 102    -0.045350638512439
 103     0.028734576497845
 104     0.048333394833875
 105    -0.061556620265892
 106     0.033406809002044
 107     0.062436993013813
 108    0.0028479568731568
 109    -0.0068424808471066
 110    0.0052705619496965
 111    0.00075494880026452
 112    -0.0039815216526796
 113    0.0069034954177822
 114    -0.047495044539681
 115     0.094295658123322
 116     0.052281900296925
 117    -0.014154417619713
 118    -0.030906112011833
 119     0.010918756927935
 120    -0.027825484019033
 121    -0.064327962842512
 122     0.021008553438347
 123    -0.039915250769338
 124    -0.082227157861332
 125      0.03169464455584
 126    -0.0033436041251197
 127    -0.0015602137205863
 128    -0.0044609864894079
 129    -0.0061194191124686
 130    0.0042194098787606
 131    0.0071959330349454
 132    -0.049462891118914
 133     0.096379917843208
 134     0.061350743156225
 135    0.0064938880898436
 136    -0.018614121779544
 137    -0.030301935075931
 138     0.012079451247766
 139    -0.037758541977995
 140    -0.062673025891264
 141     0.020386397254825
 142    -0.052049073092329
 143    -0.083941149749407
 144    0.0061888617402812
 145    -0.0016170607084939
 146    0.0078700773557181
 147    -0.0021163331189054
 148    -0.0010197276422541
 149    0.0070339215406907
 150    -0.048571205671696
 151     0.098852806079705
 152      0.05145182758342
 153     0.022330658308595
 154    -0.013177771698805
 155     0.023110351972355
 156     0.045350638512439
 157    -0.028734576497845
 158     0.048333394833875
 159     0.061556620265892
 160    -0.033406809002044
 161     0.062436993013813
 162    0.0028479568731568
 163    0.0068424808471065
 164    -0.0052705619496965
 165    0.00075494880026452
 166    -0.0039815216526796
 167    0.0069034954177822
 168    -0.047495044539681
 169     0.094295658123322
 170     0.052281900296925
 171     0.014154417619713
 172     0.030906112011833
 173     0.010918756927935
 174     0.027825484019033
 175     0.064327962842512
 176     0.021008553438347
 177     0.039915250769338
 178     0.082227157861332
 179     0.031694644555839
 180    -0.0033436041251197
 181    0.0015602137205863
 182    0.0044609864894079
 183    -0.0061194191124686
 184    0.0042194098787606
 Sym= A
 Ene=               1
 Spin= Alpha
 Occup=    1.00000
   1     0.032121750651683
   2    -0.098011627370567
   3      0.42515423490123
   4     0.033744407705302
   5      -0.0455183604894
   6      0.15287504412187
   7    8.0320239424509e-05
   8     0.060809948210527
   9     -0.51348153118266
  10    -0.00025037763416389
  11     -0.20157781531528
  12    0.0092071060127298
  13    0.0059800502821182
  14    -0.013689982997784
  15     0.017416942687327
  16    -0.033396554244012
  17    -0.0016226650966797
  18    -0.046887767948452
  19    0.0013755751540381
  20     0.007774209628254
  21    -0.015922390850955
  22    6.8326591698843e-05
  23    -0.023370547934229
  24    0.0011003075843815
  25    -0.00046068420345398
  26    -0.00021799874756559
  27    -0.00030597619667186
  28    0.0009606850107287
  29    5.7525345529189e-05
  30    0.0006524680781615
  31    -0.00023626741121127
  32    3.4276858328722e-17
  33    7.1203906807538e-19
  34    1.6501750707744e-17
  35    -0.079557942023511
  36    -0.001559936924422
  37    7.3175703192236e-18
  38    -0.081056528638459
  39    -0.002302322726785
  40    6.9035932931066e-18
  41    2.2271009146651e-19
  42    -0.0023050642718994
  43    -7.5431989758653e-05
  44    -3.4995404625666e-19
  45    -4.8373538944386e-20
  46    -0.032121750651683
  47     0.098011627370567
  48     -0.42515423490123
  49    -0.033744407705302
  50       0.0455183604894
  51      0.15287504412187
  52    8.0320239424509e-05
  53    -0.060809948210527
  54     -0.51348153118266
  55    -0.00025037763416389
  56      0.20157781531528
  57    0.0092071060127297
  58    0.0059800502821182
  59     0.013689982997784
  60    -0.017416942687327
  61    -0.033396554244012
  62    -0.0016226650966797
  63     0.046887767948452
  64    -0.0013755751540381
  65    -0.007774209628254
  66    -0.015922390850955
  67    6.8326591698827e-05
  68     0.023370547934229
  69    -0.0011003075843814
  70    0.00046068420345398
  71    -0.00021799874756559
  72    -0.00030597619667186
  73    -0.0009606850107287
  74    -5.7525345529189e-05
  75    0.0006524680781615
  76    -0.00023626741121127
  77    -0.0012543735440421
  78     0.010623131575116
  79    -0.039257230293023
  80    -0.013391520330372
  81    -0.021450992387455
  82    0.00083006037902719
  83    -0.010990946377272
  84    -0.036233685724255
  85    -0.0027791462771898
  86    -0.011333468623165
  87    -0.054274869095864
  88    -0.0028941212115188
  89    -0.019418838923899
  90    0.00082964099440996
  91      0.00191715943165
  92    -4.5115369117147e-05
  93    -2.727123674759e-05
  94    -0.0012343576556134
  95    0.00083162916680713
  96    -0.002630883223924
  97     -0.02096327708716
  98    -0.010544089313698
  99    -0.045643016497925
 100    0.0070524061170144
 101    -0.00035296704226565
 102    -0.073048954235205
 103    0.0085822847007161
 104    -0.0063828619900221
 105     -0.10911993933202
 106    0.0089037079766134
 107    -0.012890357114122
 108    -0.0013942936792742
 109    -0.0033459433884338
 110    0.00048799274042938
 111    0.0012244794313535
 112    -0.002250824323862
 113    0.0017190019225935
 114    -0.0085852364410129
 115    -0.010758314195776
 116    -0.0047649393670332
 117    -0.040459791455532
 118    -0.025113930044386
 119    -0.0061840608462112
 120    -0.066994363598731
 121     -0.03582727043144
 122    -0.012774432575229
 123     -0.10119200622771
 124    -0.049639321727042
 125    -0.019267552686921
 126      -0.0016767784735
 127    -0.0013902306230813
 128    -0.00051299278626051
 129    -0.0021097462991532
 130    0.0036180827748531
 131    0.0012543735440425
 132    -0.010623131575116
 133     0.039257230293023
 134     0.013391520330373
 135    -0.021450992387455
 136    0.00083006037902723
 137     0.010990946377272
 138    -0.036233685724256
 139    -0.0027791462771897
 140     0.011333468623165
 141    -0.054274869095864
 142    -0.0028941212115187
 143     0.019418838923899
 144    -0.00082964099440997
 145      0.00191715943165
 146    -4.5115369117156e-05
 147    2.7271236747593e-05
 148    0.0012343576556134
 149    -0.00083162916680714
 150    0.0026308832239241
 151      0.02096327708716
 152     0.010544089313698
 153    -0.045643016497925
 154    0.0070524061170144
 155    0.00035296704226564
 156    -0.073048954235205
 157    0.0085822847007161
 158    0.0063828619900221
 159     -0.10911993933202
 160    0.0089037079766134
 161     0.012890357114122
 162    0.0013942936792742
 163    -0.0033459433884338
 164    0.00048799274042938
 165    -0.0012244794313535
 166     0.002250824323862
 167    -0.0017190019225935
 168    0.0085852364410129
 169     0.010758314195776
 170    0.0047649393670332
 171    -0.040459791455532
 172    -0.025113930044386
 173    0.0061840608462112
 174    -0.066994363598731
 175     -0.03582727043144
 176     0.012774432575229
 177     -0.10119200622771
 178    -0.049639321727042
 179     0.019267552686921
 180       0.0016767784735
 181    -0.0013902306230813
 182    -0.00051299278626051
 183    0.0021097462991532
 184    -0.0036180827748531
 Sym= A
 Ene=               2
 Spin= Alpha
 Occup=    1.00000
   1    -0.0027962691051208
   2    0.0080184418402366
   3    -0.038895362989785
   4    0.0094533157839504
   5    0.0028145559975733
   6    -0.0095478049244647
   7    -0.010596592925012
   8       0.0120921997641
   9     0.031297397286521
  10     0.033799422318132
  11    -0.036892374832083
  12     -0.02303880720245
  13     0.069107269682499
  14     0.038861899450104
  15    -0.034094551990264
  16     0.042267673762374
  17    -0.070675611197981
  18     -0.04985756868842
  19     0.059013103626394
  20     -0.02206922877427
  21     0.028341861845077
  22     -0.04584476630805
  23    -0.032512730646045
  24     0.039437582336855
  25    -7.6680119272491e-05
  26    -0.0010754373240703
  27    -0.00024664257662013
  28    0.00075471169469036
  29    -0.0022201198788199
  30    -0.00094565193483742
  31    -0.00014888326896133
  32    -9.1946970104531e-17
  33    -1.0557632955718e-16
  34    -9.902018797577e-17
  35    0.0037117558493861
  36    -0.011901108702167
  37    -2.0111694461942e-16
  38    0.00095397401277496
  39    -0.021427062987459
  40    -2.2250362846261e-16
  41    -1.5957783176414e-18
  42    0.00059365284539549
  43    -0.00077292639656811
  44    -6.1240579773335e-18
  45    3.0580870266753e-18
  46    0.0027962691051209
  47    -0.0080184418402368
  48     0.038895362989786
  49    -0.0094533157839505
  50    -0.0028145559975733
  51    -0.0095478049244651
  52    -0.010596592925012
  53      -0.0120921997641
  54     0.031297397286523
  55     0.033799422318132
  56     0.036892374832083
  57    -0.023038807202449
  58     0.069107269682498
  59    -0.038861899450104
  60     0.034094551990264
  61     0.042267673762373
  62    -0.070675611197981
  63      0.04985756868842
  64    -0.059013103626393
  65      0.02206922877427
  66     0.028341861845077
  67     -0.04584476630805
  68     0.032512730646045
  69    -0.039437582336854
  70    7.668011927249e-05
  71    -0.0010754373240703
  72    -0.00024664257662012
  73    -0.00075471169469036
  74    0.0022201198788199
  75    -0.00094565193483742
  76    -0.00014888326896133
  77    0.00084260764867561
  78    -0.0049065209907642
  79    0.0050510912536323
  80    -0.0019988508199207
  81    0.0090318979811283
  82    -0.013801516920365
  83    -0.036527196886124
  84     0.015604808524717
  85    -0.023451441660796
  86    -0.060913821983912
  87     0.024930930057357
  88    -0.042767013303897
  89    -0.090472616582768
  90     0.003098255215812
  91    0.00035786083993828
  92    -0.0013450293499329
  93    0.00017115169868667
  94    0.00064894555708495
  95    -0.0096895388103515
  96     0.061527817352912
  97    -0.087104639995347
  98    -0.027489592921006
  99     0.072633696381864
 100    -0.055469104347742
 101    -0.081352987457989
 102      0.12346591839294
 103    -0.093809071310202
 104     -0.13754050013277
 105       0.1736120862518
 106     -0.13777195080888
 107     -0.19517294990898
 108    -0.0060177587766758
 109     0.012108174027786
 110    -0.0087106969573808
 111    -0.0039414650021539
 112    0.0063537500531485
 113    0.0091251265103973
 114    -0.057571388273068
 115     0.076404288467849
 116     0.028564668773347
 117    -0.050558951358682
 118      -0.1027128522562
 119    0.0067282181577747
 120    -0.086214347432235
 121     -0.17224947737737
 122     0.010623186528079
 123      -0.1215715700431
 124     -0.25305242050447
 125     0.010266278032424
 126    -0.0051532404560313
 127    -0.002441051262801
 128    -0.0084984186379163
 129    -0.0086784047204142
 130    0.0084472035631528
 131    -0.00084260764867565
 132     0.004906520990764
 133    -0.0050510912536321
 134    0.0019988508199208
 135    0.0090318979811285
 136    -0.013801516920365
 137     0.036527196886124
 138     0.015604808524717
 139    -0.023451441660796
 140     0.060913821983911
 141     0.024930930057358
 142    -0.042767013303897
 143     0.090472616582767
 144    -0.0030982552158119
 145    0.00035786083993826
 146    -0.0013450293499329
 147    -0.00017115169868669
 148    -0.00064894555708496
 149    0.0096895388103513
 150    -0.061527817352912
 151     0.087104639995346
 152     0.027489592921006
 153     0.072633696381864
 154    -0.055469104347742
 155     0.081352987457988
 156      0.12346591839294
 157    -0.093809071310201
 158      0.13754050013277
 159       0.1736120862518
 160     -0.13777195080888
 161      0.19517294990898
 162    0.0060177587766758
 163     0.012108174027786
 164    -0.0087106969573808
 165    0.0039414650021539
 166    -0.0063537500531484
 167    -0.0091251265103976
 168     0.057571388273068
 169    -0.076404288467849
 170    -0.028564668773347
 171    -0.050558951358682
 172      -0.1027128522562
 173    -0.0067282181577747
 174    -0.086214347432235
 175     -0.17224947737737
 176    -0.010623186528079
 177      -0.1215715700431
 178     -0.25305242050447
 179    -0.010266278032424
 180    0.0051532404560313
 181    -0.002441051262801
 182    -0.0084984186379163
 183    0.0086784047204141
 184    -0.0084472035631528
 Sym= A
 Ene=               3
 Spin= Alpha
 Occup=    1.00000
   1    0.0052692786983476
   2    -0.017050083194016
   3     0.066038742223744
   4    -0.0014181708882622
   5    -0.0016577903173506
   6     0.043745597554457
   7      0.01413123066255
   8    -0.00010840069863506
   9     -0.14479282477202
  10    -0.043522735766238
  11    -0.0019431782013374
  12    -0.027196104141589
  13     0.040251731241031
  14     0.068838969695008
  15    -0.0057948679416018
  16     0.043685142841356
  17    -0.082383097757631
  18    -0.045063934399792
  19     0.047187727989528
  20    -0.0028942424416159
  21     0.030192246861414
  22    -0.053849884415501
  23    -0.028267367620615
  24     0.031582386325799
  25    -0.00011802237998702
  26    -0.0012926076914613
  27    -0.00059347111252814
  28    0.0002267414765384
  29    -0.0021347730071878
  30    -0.00016224563543497
  31    0.00063274425091217
  32      -0.0217227736136
  33    -0.025553031736198
  34    -0.024888223830209
  35    -3.8431843188662e-18
  36    6.2924383048549e-17
  37    -0.010689877784975
  38    2.9099043952327e-18
  39    9.3631554519538e-17
  40    -0.020393157482042
  41    0.0002945863906673
  42    -2.44152460618e-18
  43    3.7625292580341e-18
  44    -0.0012796307705905
  45    0.00086821791605572
  46    0.0052692786983476
  47    -0.017050083194016
  48     0.066038742223743
  49    -0.0014181708882621
  50    -0.0016577903173506
  51    -0.043745597554457
  52     -0.01413123066255
  53    -0.00010840069863494
  54      0.14479282477202
  55     0.043522735766238
  56    -0.0019431782013378
  57     0.027196104141589
  58    -0.040251731241031
  59     0.068838969695008
  60    -0.005794867941602
  61    -0.043685142841357
  62     0.082383097757632
  63    -0.045063934399792
  64     0.047187727989528
  65    -0.0028942424416161
  66    -0.030192246861414
  67     0.053849884415501
  68    -0.028267367620615
  69     0.031582386325799
  70    -0.00011802237998702
  71    0.0012926076914613
  72    0.00059347111252814
  73    0.0002267414765384
  74    -0.0021347730071878
  75    0.00016224563543498
  76    -0.00063274425091216
  77    0.0051153988433675
  78    -0.030869958715053
  79     0.030469983961323
  80    0.0044121448448758
  81    -0.024372440453544
  82    0.0099815452945971
  83    -0.081827399370769
  84    -0.041332097654281
  85     0.014981949273888
  86     -0.13476259833806
  87    -0.058555156066221
  88     0.012078208880742
  89     -0.19517251444146
  90     0.007284550350172
  91    0.0029194114599529
  92    -0.0069942589696858
  93    -0.0013383425950256
  94    -0.0010328593955166
  95    -0.011461875165663
  96      0.07391198030322
  97     -0.11428475384577
  98    -0.036702147166553
  99     0.074452522099946
 100    -0.057701633704826
 101    -0.084687775710018
 102      0.12871130768281
 103    -0.099619318769234
 104     -0.14544556800584
 105      0.17884251807982
 106     -0.14073599710208
 107     -0.20658624366705
 108    -0.0060502964450023
 109      0.01290423793691
 110    -0.0099545797145679
 111    -0.0034982130186035
 112    0.0071435940504991
 113    0.0029649247415734
 114    -0.017254859567632
 115     0.011961713554881
 116    0.0024878146614294
 117    -0.017859681847656
 118    -0.067187090752223
 119    0.0014353793447712
 120    -0.028978109234579
 121     -0.10883144458314
 122    0.0015014904066566
 123    -0.038470702569637
 124     -0.16493929453876
 125     -0.00456527947878
 126    -0.0026347233540441
 127    -0.00082153058384161
 128    -0.0049965645880784
 129    -0.0041888521329379
 130    0.0046902447093952
 131    0.0051153988433675
 132    -0.030869958715054
 133     0.030469983961323
 134    0.0044121448448758
 135     0.024372440453544
 136    -0.0099815452945969
 137    -0.081827399370769
 138     0.041332097654281
 139    -0.014981949273888
 140     -0.13476259833806
 141     0.058555156066221
 142    -0.012078208880742
 143     -0.19517251444146
 144     0.007284550350172
 145    -0.0029194114599529
 146    0.0069942589696859
 147    -0.0013383425950256
 148    -0.0010328593955166
 149    -0.011461875165663
 150     0.073911980303221
 151     -0.11428475384578
 152    -0.036702147166553
 153    -0.074452522099946
 154     0.057701633704827
 155    -0.084687775710018
 156     -0.12871130768281
 157     0.099619318769234
 158     -0.14544556800584
 159     -0.17884251807982
 160      0.14073599710208
 161     -0.20658624366705
 162    -0.0060502964450023
 163     -0.01290423793691
 164     0.009954579714568
 165    -0.0034982130186035
 166    0.0071435940504992
 167    0.0029649247415734
 168    -0.017254859567633
 169     0.011961713554881
 170    0.0024878146614296
 171     0.017859681847656
 172     0.067187090752224
 173    0.0014353793447712
 174      0.02897810923458
 175      0.10883144458314
 176    0.0015014904066567
 177     0.038470702569638
 178      0.16493929453876
 179     -0.00456527947878
 180    -0.0026347233540441
 181    0.00082153058384163
 182    0.0049965645880784
 183    -0.0041888521329379
 184    0.0046902447093952
 Sym= A
 Ene=               4
 Spin= Alpha
 Occup=    1.00000
   1    -0.0093479991153503
   2     0.029438516695371
   3     -0.12034647206199