[Molden Format]
made by pyscf v[2.1.1]
[Atoms] (AU)
Fe   1   26     3.17068844873907     0.00098706064664     0.12237737881307
O   2   8     0.00000000000000     0.00000000000000    -0.89004350580623
Fe   3   26    -3.17068844873907    -0.00098706064664     0.12237737881307
Cl   4   17     3.53383895113107    -2.07485195383062     3.76228752659000
Cl   5   17     5.54152580550813    -1.85590924879884    -2.78672786652360
Cl   6   17     4.48169216485503     3.92976278472880    -0.95330240907949
Cl   7   17    -3.53383895113107     2.07485195383062     3.76228752659000
Cl   8   17    -5.54152580550813     1.85590924879884    -2.78672786652360
Cl   9   17    -4.48169216485503    -3.92976278472880    -0.95330240907949
[GTO]
1 0
 s    6 1.00
          60923.640643  0.0017552243692958
          9147.8893982   0.013449023284001
          2081.3505927   0.066678874640978
          587.55977067    0.23176348548844
           191.0904399    0.46945550248188
          65.732730112     0.3596824938678
 s    3 1.00
          127.25891928   -0.10723431835929
           14.83091301    0.62971616328466
          6.0653307408    0.44472317896179
 s    3 1.00
           10.44994371   -0.21694289195548
          1.7245228003    0.69457867408393
         0.71772177325    0.43298308896347
 s    1 1.00
        0.091449828308                   1
 s    1 1.00
        0.033706691021                   1
 p    5 1.00
          773.43750995  0.0091440529992506
          182.15149714   0.067887577136571
          57.547272758    0.26167978878504
          20.614988935    0.51088040113251
           7.634855789    0.33235475570224
 p    3 1.00
           3.871932799    0.33193859098144
          1.4924724132     0.5553666555499
         0.56061284958    0.23106034201617
 p    1 1.00
              0.134915                   1
 d    4 1.00
          38.968133419   0.033335938558743
          10.800067078    0.17766212505983
          3.6136457999      0.441281781625
          1.2129967888    0.57089200490673
 d    1 1.00
          0.3652439317                   1
 f    1 1.00
                 1.598                   1

2 0
 s    5 1.00
          2266.1767785  -0.0053893503921743
          340.87010191   -0.04023472138896
          77.363135167   -0.18008184205526
           21.47964494   -0.46828857657651
          6.6589433124   -0.44692617160187
 s    1 1.00
         0.80975975668                   1
 s    1 1.00
         0.25530772234                   1
 p    3 1.00
          17.721504317   0.062630248763161
           3.863550544    0.33331138482352
          1.0480920883    0.74148638308122
 p    1 1.00
         0.27641544411                   1
 d    1 1.00
                   1.2                   1

3 0
 s    6 1.00
          60923.640643  0.0017552243692958
          9147.8893982   0.013449023284001
          2081.3505927   0.066678874640978
          587.55977067    0.23176348548844
           191.0904399    0.46945550248188
          65.732730112     0.3596824938678
 s    3 1.00
          127.25891928   -0.10723431835929
           14.83091301    0.62971616328466
          6.0653307408    0.44472317896179
 s    3 1.00
           10.44994371   -0.21694289195548
          1.7245228003    0.69457867408393
         0.71772177325    0.43298308896347
 s    1 1.00
        0.091449828308                   1
 s    1 1.00
        0.033706691021                   1
 p    5 1.00
          773.43750995  0.0091440529992506
          182.15149714   0.067887577136571
          57.547272758    0.26167978878504
          20.614988935    0.51088040113251
           7.634855789    0.33235475570224
 p    3 1.00
           3.871932799    0.33193859098144
          1.4924724132     0.5553666555499
         0.56061284958    0.23106034201617
 p    1 1.00
              0.134915                   1
 d    4 1.00
          38.968133419   0.033335938558743
          10.800067078    0.17766212505983
          3.6136457999      0.441281781625
          1.2129967888    0.57089200490673
 d    1 1.00
          0.3652439317                   1
 f    1 1.00
                 1.598                   1

4 0
 s    5 1.00
          10449.827566  0.0054265953789407
          1571.7365221   0.040626378128836
          357.12065523    0.18359747852877
          100.25185935    0.47438948768198
          30.812727554    0.43735181104122
 s    3 1.00
          51.923789434  -0.092754154848099
          5.7045760975    0.56380825544207
          2.3508376809    0.50367044629712
 s    1 1.00
         0.44605124672                   1
 s    1 1.00
          0.1684885619                   1
 p    5 1.00
          307.66790569  -0.0088797025588865
          72.102015515  -0.064284071721237
          22.532680262   -0.24288739736006
          7.8991765444   -0.48340836369878
          2.8767268321   -0.38952563875509
 p    1 1.00
         0.77459363955                   1
 p    1 1.00
         0.21037699698                   1
 d    1 1.00
                  0.65                   1

5 0
 s    5 1.00
          10449.827566  0.0054265953789407
          1571.7365221   0.040626378128836
          357.12065523    0.18359747852877
          100.25185935    0.47438948768198
          30.812727554    0.43735181104122
 s    3 1.00
          51.923789434  -0.092754154848099
          5.7045760975    0.56380825544207
          2.3508376809    0.50367044629712
 s    1 1.00
         0.44605124672                   1
 s    1 1.00
          0.1684885619                   1
 p    5 1.00
          307.66790569  -0.0088797025588865
          72.102015515  -0.064284071721237
          22.532680262   -0.24288739736006
          7.8991765444   -0.48340836369878
          2.8767268321   -0.38952563875509
 p    1 1.00
         0.77459363955                   1
 p    1 1.00
         0.21037699698                   1
 d    1 1.00
                  0.65                   1

6 0
 s    5 1.00
          10449.827566  0.0054265953789407
          1571.7365221   0.040626378128836
          357.12065523    0.18359747852877
          100.25185935    0.47438948768198
          30.812727554    0.43735181104122
 s    3 1.00
          51.923789434  -0.092754154848099
          5.7045760975    0.56380825544207
          2.3508376809    0.50367044629712
 s    1 1.00
         0.44605124672                   1
 s    1 1.00
          0.1684885619                   1
 p    5 1.00
          307.66790569  -0.0088797025588865
          72.102015515  -0.064284071721237
          22.532680262   -0.24288739736006
          7.8991765444   -0.48340836369878
          2.8767268321   -0.38952563875509
 p    1 1.00
         0.77459363955                   1
 p    1 1.00
         0.21037699698                   1
 d    1 1.00
                  0.65                   1

7 0
 s    5 1.00
          10449.827566  0.0054265953789407
          1571.7365221   0.040626378128836
          357.12065523    0.18359747852877
          100.25185935    0.47438948768198
          30.812727554    0.43735181104122
 s    3 1.00
          51.923789434  -0.092754154848099
          5.7045760975    0.56380825544207
          2.3508376809    0.50367044629712
 s    1 1.00
         0.44605124672                   1
 s    1 1.00
          0.1684885619                   1
 p    5 1.00
          307.66790569  -0.0088797025588865
          72.102015515  -0.064284071721237
          22.532680262   -0.24288739736006
          7.8991765444   -0.48340836369878
          2.8767268321   -0.38952563875509
 p    1 1.00
         0.77459363955                   1
 p    1 1.00
         0.21037699698                   1
 d    1 1.00
                  0.65                   1

8 0
 s    5 1.00
          10449.827566  0.0054265953789407
          1571.7365221   0.040626378128836
          357.12065523    0.18359747852877
          100.25185935    0.47438948768198
          30.812727554    0.43735181104122
 s    3 1.00
          51.923789434  -0.092754154848099
          5.7045760975    0.56380825544207
          2.3508376809    0.50367044629712
 s    1 1.00
         0.44605124672                   1
 s    1 1.00
          0.1684885619                   1
 p    5 1.00
          307.66790569  -0.0088797025588865
          72.102015515  -0.064284071721237
          22.532680262   -0.24288739736006
          7.8991765444   -0.48340836369878
          2.8767268321   -0.38952563875509
 p    1 1.00
         0.77459363955                   1
 p    1 1.00
         0.21037699698                   1
 d    1 1.00
                  0.65                   1

9 0
 s    5 1.00
          10449.827566  0.0054265953789407
          1571.7365221   0.040626378128836
          357.12065523    0.18359747852877
          100.25185935    0.47438948768198
          30.812727554    0.43735181104122
 s    3 1.00
          51.923789434  -0.092754154848099
          5.7045760975    0.56380825544207
          2.3508376809    0.50367044629712
 s    1 1.00
         0.44605124672                   1
 s    1 1.00
          0.1684885619                   1
 p    5 1.00
          307.66790569  -0.0088797025588865
          72.102015515  -0.064284071721237
          22.532680262   -0.24288739736006
          7.8991765444   -0.48340836369878
          2.8767268321   -0.38952563875509
 p    1 1.00
         0.77459363955                   1
 p    1 1.00
         0.21037699698                   1
 d    1 1.00
                  0.65                   1

[5d]
[7f]
[9g]

[MO]
 Sym= A
 Ene=               0
 Spin= Alpha
 Occup=    1.00000
   1    -0.00052639540771298
   2    0.0010833246643864
   3    -0.0090559018057338
   4    -0.058759054611597
   5     0.031855484433197
   6    0.0042151765710769
   7    -0.00014179336396185
   8    -0.0039239505391695
   9    -0.013903354130998
  10    0.00040058424308904
  11     0.013650204825428
  12     0.039969994815376
  13    0.0026163642570035
  14    -0.093712615444578
  15     0.065475172545083
  16     0.067570764728036
  17    -0.008073187087728
  18    -0.060133785833242
  19    0.0030718111092547
  20     0.035956056093552
  21     0.050149542818033
  22    -0.0010583137875288
  23    -0.030311151649525
  24    0.0015209207945315
  25    0.0012099257360754
  26    -0.0031569461876345
  27    2.9419793728328e-05
  28    -0.0020952663288007
  29    -6.9769556459739e-05
  30    0.0015896579411798
  31    6.3406837602138e-05
  32     0.035134360123965
  33      0.19006934853936
  34       0.1466992026902
  35    -1.8297069137412e-09
  36    3.2840496172949e-11
  37     -0.52452301469253
  38    -1.925887413274e-09
  39    1.7814334089307e-10
  40     -0.44775411025106
  41    -0.013416014361203
  42    -6.0896651621893e-11
  43    2.6326899841849e-12
  44      0.00262052603606
  45    -0.00015562543009221
  46    -0.00052639535162312
  47    0.0010833245774012
  48    -0.0090559008291573
  49    -0.058759051891727
  50     0.031855483698896
  51    -0.0042151759597615
  52    0.00014179338338408
  53    -0.0039239508117395
  54     0.013903352173645
  55    -0.00040058430028409
  56     0.013650205647741
  57    -0.039969995096253
  58    -0.0026163641897042
  59    -0.093712615286673
  60     0.065475172300434
  61    -0.067570765295208
  62    0.0080731872775793
  63    -0.060133785095307
  64    0.0030718112988615
  65     0.035956056011462
  66    -0.050149542978186
  67    0.0010583139005573
  68    -0.030311151465987
  69    0.0015209208632967
  70    0.0012099257688006
  71     0.003156946168327
  72    -2.9419776219112e-05
  73    -0.0020952663625104
  74    -6.976955399279e-05
  75    -0.0015896578978902
  76    -6.3406828472949e-05
  77    -2.8645373775647e-05
  78    0.00027831476565251
  79    -0.001594141847073
  80    0.0092593015486708
  81    -0.0038072687090768
  82    0.00079698142329292
  83    -0.0001728056722332
  84    -0.007510722059142
  85    -0.00020696445745612
  86    0.0011497222756206
  87    -0.010294006878796
  88     0.012881634215493
  89    -0.010308639621191
  90    0.00030629310377255
  91    -0.0029517438064941
  92    0.00025430805944998
  93    -0.0017854356232661
  94    0.0018085215411434
  95    -0.0011807735523914
  96    0.0080356278009178
  97    -0.011317790896107
  98    -0.036944655261704
  99    0.0030218458698855
 100    -0.0021962048064691
 101    -0.0027697911001474
 102    0.0065274274928648
 103    -0.0036967963372725
 104    -0.0053120815640198
 105     0.016210944352058
 106    -0.016392587030232
 107    -0.015842993410626
 108    -0.0022317208853441
 109    0.0015162319877202
 110    -0.0022475244722409
 111    0.0020454914283649
 112    -3.3810240638771e-05
 113    -0.00076652367880244
 114    0.0052753039453697
 115    -0.0070917864061277
 116    -0.023830738068994
 117    -0.00026877785338124
 118    0.0024619366117084
 119    0.00053610021397476
 120    0.00043224063768897
 121    0.0048991812281189
 122    0.00028566998856586
 123    -0.00042448790910503
 124     0.017112474055886
 125    0.0049421531378375
 126    0.00070542269718649
 127    0.0013378683981357
 128    0.0013477066108788
 129    0.0015728822799476
 130    0.00037069455220697
 131    -2.8645249807775e-05
 132    0.00027831397192166
 133    -0.0015941399454139
 134    0.0092593023740016
 135    0.0038072686118869
 136    -0.00079698169277548
 137    -0.00017280603620509
 138    0.0075107218965305
 139    0.00020696383386096
 140    0.0011497214965592
 141     0.010294006599669
 142    -0.012881635022778
 143    -0.010308640694185
 144    0.00030629320017434
 145     0.002951743801432
 146    -0.00025430795727483
 147    -0.0017854356591527
 148    0.0018085215408863
 149    -0.0011807734504809
 150    0.0080356270900426
 151    -0.011317789421155
 152    -0.036944654333837
 153    -0.0030218457498131
 154    0.0021962046425642
 155    -0.0027697907316846
 156    -0.0065274271828724
 157    0.0036967959062711
 158    -0.0053120807334645
 159    -0.016210943989109
 160     0.016392586451638
 161    -0.015842992298604
 162    -0.0022317208396482
 163    -0.0015162318840256
 164    0.0022475243961715
 165    0.0020454914485302
 166    -3.3810301486946e-05
 167    -0.00076652358988954
 168    0.0052753033220299
 169    -0.0070917847789428
 170    -0.023830737082986
 171    0.00026877783551181
 172    -0.0024619362487149
 173    0.00053610042250753
 174    -0.00043224057071096
 175    -0.0048991804348097
 176    0.00028567039764175
 177    0.0004244879419007
 178    -0.017112473105879
 179    0.0049421537511344
 180    0.00070542264048697
 181    -0.0013378683858155
 182    -0.0013477065513517
 183    0.0015728821817692
 184    0.00037069460785881
 Sym= B
 Ene=               1
 Spin= Alpha
 Occup=    1.00000
   1    0.00015187287126469
   2    -0.00028965584337868
   3    0.0026889611509546
   4    -0.0088051417419586
   5    -0.0042702330959022
   6    -0.00071142938365026
   7    0.0048385204285399
   8    -9.6972468695713e-05
   9    0.0023785115279805
  10    -0.016642255895288
  11    0.00039214329467787
  12    0.0037931424821936
  13     0.098707192287772
  14    -0.0011221635391938
  15    0.0095432070728584
  16    -0.0074246420575617
  17     -0.02855395610317
  18    0.0011641449087993
  19     -0.11135637376125
  20    0.0023330874987724
  21    -0.0034941656402397
  22    -0.017772237348651
  23    -0.00010206732039226
  24    -0.071141760042024
  25    -0.00012409666228119
  26    -9.1068284914119e-06
  27    -0.00073954081259517
  28    9.687474239447e-05
  29    0.0019615873845505
  30    0.00020976938435431
  31    0.0040482130751787
  32    -1.2237630556892e-16
  33    -2.4120168672623e-16
  34    -2.0794803218506e-16
  35    -0.023306159449941
  36      0.55509827138089
  37    2.4063032472414e-15
  38    -0.020625628453396
  39      0.47704710343423
  40    2.4345099920845e-15
  41    5.8687965508238e-17
  42    -0.00053595231777986
  43     0.011375363306609
  44    4.9994464468155e-18
  45    6.1039440858034e-19
  46    -0.00015187287126469
  47    0.00028965584337869
  48    -0.0026889611509547
  49    0.0088051417419591
  50    0.0042702330959019
  51    -0.00071142938365025
  52    0.0048385204285399
  53    9.6972468695771e-05
  54    0.0023785115279805
  55    -0.016642255895288
  56    -0.00039214329467807
  57    0.0037931424821941
  58     0.098707192287772
  59    0.0011221635391946
  60    -0.0095432070728589
  61    -0.0074246420575612
  62     -0.02855395610317
  63    -0.0011641449087982
  64      0.11135637376125
  65    -0.0023330874987727
  66    -0.0034941656402393
  67    -0.017772237348651
  68    0.00010206732039274
  69     0.071141760042024
  70    0.00012409666228118
  71    -9.1068284914461e-06
  72    -0.00073954081259518
  73    -9.6874742394454e-05
  74    -0.0019615873845505
  75    0.00020976938435433
  76    0.0040482130751787
  77    0.00051440711936739
  78    -0.0034711941925539
  79    0.0043233837635364
  80      0.01842468046023
  81    -0.0013381496097027
  82    -0.0008768062136996
  83    -0.0027738551948382
  84    -0.0032888431424667
  85    -0.001116878630346
  86    -0.004250706135657
  87    -0.0021246854509916
  88    -0.0028341571138024
  89     -0.02003289123026
  90    0.00039334589297627
  91     -0.00238678255407
  92    -0.00087784029532443
  93    -0.0010631477234943
  94    2.0665091872116e-06
  95    0.00048623713533633
  96    -0.0032733058699436
  97    0.0047909676775063
  98     0.014727786587743
  99    -0.0022192909002849
 100    -0.00026710922425379
 101    0.0018500325681755
 102    -0.0043161475095004
 103    0.00028157450530709
 104    0.0024912266126819
 105    -0.010413558256985
 106    -0.0043299132198083
 107     0.013600691767666
 108    0.0019876586613914
 109    0.00017213575428967
 110    0.00028365957349275
 111    -0.0013843155817209
 112    -0.0002677601573079
 113    -0.00057306617943546
 114    0.0039703322824815
 115    -0.0063394217103433
 116    -0.019301576198465
 117    0.0026294764423611
 118    0.0013533737179045
 119    -0.00072362183329491
 120    0.0059029435917264
 121    0.0015519169074243
 122    -0.00039225584800517
 123    0.0088328076643653
 124     0.017863194452806
 125    -0.0089088331884157
 126    -0.0015300141448913
 127    5.2904594831739e-06
 128    0.0015926699252278
 129    0.0037933453386394
 130    0.0033117704046413
 131    -0.00051440711936739
 132     0.003471194192554
 133    -0.0043233837635366
 134     -0.01842468046023
 135    -0.0013381496097028
 136    -0.00087680621369955
 137    0.0027738551948383
 138    -0.0032888431424668
 139    -0.0011168786303459
 140    0.0042507061356571
 141    -0.0021246854509917
 142    -0.0028341571138022
 143      0.02003289123026
 144    -0.00039334589297628
 145     -0.00238678255407
 146    -0.00087784029532443
 147    0.0010631477234943
 148    -2.066509187229e-06
 149    -0.00048623713533631
 150    0.0032733058699436
 151    -0.0047909676775064
 152    -0.014727786587743
 153    -0.0022192909002849
 154    -0.00026710922425378
 155    -0.0018500325681755
 156    -0.0043161475095004
 157    0.00028157450530709
 158    -0.0024912266126819
 159    -0.010413558256985
 160    -0.0043299132198084
 161    -0.013600691767666
 162    -0.0019876586613914
 163    0.00017213575428968
 164    0.00028365957349273
 165    0.0013843155817209
 166    0.0002677601573079
 167    0.00057306617943548
 168    -0.0039703322824815
 169    0.0063394217103432
 170     0.019301576198465
 171    0.0026294764423611
 172    0.0013533737179045
 173    0.00072362183329489
 174    0.0059029435917264
 175    0.0015519169074243
 176    0.00039225584800514
 177    0.0088328076643654
 178     0.017863194452806
 179    0.0089088331884156
 180    0.0015300141448913
 181    5.2904594831857e-06
 182    0.0015926699252278
 183    -0.0037933453386394
 184    -0.0033117704046413
 Sym= B
 Ene=               2
 Spin= Alpha
 Occup=    1.00000
   1    0.0041914879036087
   2    -0.009893523833915
   3     0.066639327660074
   4     -0.08663147337873
   5    0.0085958141878774
   6    -0.007127916323507
   7    -0.00050505622544332
   8    -0.0043316372057561
   9     0.023499948173221
  10    0.0016141341940273
  11     0.013981271492893
  12      0.08744524797806
  13    -0.0028336322704404
  14     0.020385148552404
  15      0.05263681194688
  16    -0.099550009451291
  17    -0.0041732496079434
  18     -0.12689682879521
  19    0.0046760948451554
  20     0.025562871584308
  21    -0.048083340132052
  22    -0.0018284987894493
  23    -0.060881417606267
  24    0.0027151707239542
  25    -0.0024875176338071
  26    -0.0013361717035334
  27    -0.00058760310134101
  28    0.0038704923328382
  29    5.3866573084577e-05
  30    0.0039947927754166
  31    -0.00043447548499031
  32    -9.9215769702791e-17
  33    -2.8521152789318e-16
  34    -2.1909208003419e-16
  35     -0.51496796124589
  36    -0.028971308793861
  37    4.7894370207759e-15
  38     -0.41971825552412
  39    -0.024542675768212
  40    4.1509653115095e-15
  41    1.0811117707034e-16
  42    -0.013512296097273
  43    -0.00069730781954337
  44     9.11440121446e-18
  45    8.028479858371e-19
  46    -0.0041914879036087
  47     0.009893523833915
  48    -0.066639327660075
  49     0.086631473378731
  50    -0.008595814187878
  51    -0.007127916323507
  52    -0.00050505622544332
  53    0.0043316372057562
  54     0.023499948173221
  55    0.0016141341940273
  56    -0.013981271492894
  57     0.087445247978061
  58    -0.0028336322704404
  59    -0.020385148552402
  60    -0.052636811946881
  61     -0.09955000945129
  62    -0.0041732496079436
  63      0.12689682879521
  64    -0.0046760948451554
  65    -0.025562871584308
  66    -0.048083340132051
  67    -0.0018284987894494
  68     0.060881417606267
  69    -0.0027151707239542
  70    0.0024875176338071
  71    -0.0013361717035334
  72    -0.00058760310134102
  73    -0.0038704923328382
  74    -5.3866573084577e-05
  75    0.0039947927754167
  76    -0.00043447548499031
  77    0.0029327045958528
  78    -0.020253471237717
  79     0.040334868517991
  80     0.029979645779134
  81    0.0012522414480915
  82    0.0082993942584163
  83    -0.012437588831154
  84    0.0022399926162187
  85     0.016479503380665
  86    -0.025543454192783
  87    -0.0022232511131322
  88     0.025322966270943
  89    -0.038534596793352
  90    0.00096893680083316
  91    -0.00043728339089656
  92    -0.0011716943106233
  93    -0.00079394824583148
  94    -1.2530899678176e-05
  95    0.0030612076327802
  96    -0.021353691094276
  97     0.047195009405794
  98     0.019049540074792
  99    -0.0072186564621386
 100    0.0053693967233193
 101     0.010567781475083
 102    -0.015841166057216
 103     0.012107347151765
 104     0.022210237526119
 105    -0.022347390762812
 106     0.012661172918869
 107     0.026036896985253
 108    0.0016543236051455
 109    -0.00053037695581774
 110    0.00064066211773751
 111    -0.0019542249081193
 112    0.0004713560021499
 113    0.0028884256587322
 114    -0.020073835111616
 115     0.042468576339014
 116      0.02506909917895
 117    -0.0030712219553627
 118     -0.01254254704066
 119      0.00571650438407
 120    -0.0064766865160981
 121     -0.02653977660072
 122     0.010785332883881
 123    -0.014870990755052
 124    -0.035676037210392
 125     0.016168590606726
 126    0.00090620445200603
 127    -0.00065299171754327
 128    -0.0012172031778325
 129    -0.0020904551704377
 130    -0.0019568600540539
 131    -0.0029327045958529
 132     0.020253471237718
 133    -0.040334868517991
 134    -0.029979645779134
 135    0.0012522414480914
 136    0.0082993942584163
 137     0.012437588831154
 138    0.0022399926162186
 139     0.016479503380665
 140     0.025543454192783
 141    -0.0022232511131324
 142     0.025322966270944
 143     0.038534596793352
 144    -0.00096893680083318
 145    -0.00043728339089662
 146    -0.0011716943106233
 147    0.00079394824583152
 148    1.2530899678143e-05
 149    -0.0030612076327802
 150     0.021353691094277
 151    -0.047195009405794
 152    -0.019049540074791
 153    -0.0072186564621386
 154    0.0053693967233193
 155    -0.010567781475083
 156    -0.015841166057216
 157     0.012107347151765
 158    -0.022210237526119
 159    -0.022347390762812
 160     0.012661172918869
 161    -0.026036896985253
 162    -0.0016543236051455
 163    -0.00053037695581773
 164    0.00064066211773748
 165    0.0019542249081192
 166    -0.00047135600214989
 167    -0.0028884256587322
 168     0.020073835111616
 169    -0.042468576339014
 170     -0.02506909917895
 171    -0.0030712219553627
 172     -0.01254254704066
 173     -0.00571650438407
 174    -0.0064766865160981
 175     -0.02653977660072
 176    -0.010785332883881
 177    -0.014870990755052
 178    -0.035676037210392
 179    -0.016168590606726
 180    -0.00090620445200604
 181    -0.00065299171754325
 182    -0.0012172031778325
 183    0.0020904551704377
 184    0.0019568600540539
 Sym= A
 Ene=               3
 Spin= Alpha
 Occup=    1.00000
   1    -0.0096574725044351
   2      0.02379579363752
   3     -0.14978077951292
   4    -0.075440835689411
   5     0.012133695764604
   6     0.012368496395536
   7    0.00068458063968815
   8     0.004107812749125
   9    -0.039569954707803
  10    -0.0021144561154912
  11    -0.013369174255447
  12    -0.068549635691995
  13    -2.0612245860371e-05
  14    0.0016034279329495
  15    -0.038738757669081
  16     0.014308189327023
  17     0.010754231430435
  18      0.05881600152743
  19    0.00065766795401902
  20    -0.024064792331042
  21     0.010645817484957
  22     0.006995715499177
  23     0.037740409801051
  24    0.00061936075564157
  25    0.00013036514533043
  26    0.0013764617823588
  27     0.001415119712567
  28    -0.00088402535936565
  29    -0.0002906191675481
  30    -0.0019180736746374
  31    0.00047842111099996
  32     0.038003290565345
  33      0.35858607819207
  34      0.27302379702131
  35    -6.0844366904037e-09
  36    1.1701312644276e-10
  37      0.14720515358604
  38    -6.7506713841346e-09
  39    5.9977318352261e-10
  40       0.1300705685126
  41    -0.00012643323416359
  42    -2.2030073048488e-10
  43    8.749691321116e-12
  44     0.007817025024589
  45    -9.5277106570443e-05
  46    -0.0096574723037141
  47     0.023795793322765
  48     -0.14978077622603
  49    -0.075440826357336
  50     0.012133692854829
  51    -0.012368494452824
  52    -0.00068458057692227
  53    0.0041078118461055
  54     0.039569948228066
  55    0.0021144559303775
  56    -0.013369171120569
  57     0.068549635017283
  58    2.061247806455e-05
  59    0.0016034284953004
  60    -0.038738758579596
  61    -0.014308191313383
  62    -0.010754230803147
  63     0.058816004050526
  64    0.00065766860526998
  65    -0.024064792654751
  66    -0.010645818025929
  67    -0.0069957150816042
  68     0.037740410406785
  69    0.00061936099601294
  70    0.0001303652500897
  71    -0.0013764618470328
  72    -0.0014151196553544
  73    -0.0008840254761513
  74    -0.00029061915765379
  75    0.0019180738299869
  76    -0.00047842108096844
  77    -0.0074019238747769
  78      0.05126781634429
  79     -0.10527636556066
  80    -0.058269755743566
  81    0.0027373706891467
  82    -0.018653545349926
  83     0.027998046793453
  84    0.0060539197288825
  85    -0.038312701094934
  86     0.059670114661073
  87     0.012973651736927
  88    -0.053536357496799
  89     0.079802485514339
  90    -0.0050792774141347
  91    0.00035081853450357
  92     0.006154286873206
  93    0.0025551966614734
  94    -7.290535024899e-05
  95    -0.0068592864676916
  96     0.047660818739329
  97      -0.1003297691511
  98    -0.046632139184334
  99     0.016866596597402
 100     -0.01219803147328
 101    -0.023292982408333
 102     0.035744042694997
 103     -0.02714261252178
 104    -0.049116714726291
 105      0.05095035352318
 106    -0.030982583307173
 107    -0.061941388203168
 108    -0.0020236294914193
 109     0.005580754213864
 110    -0.0041345619102002
 111    -0.00084509028447848
 112    0.0035513191687839
 113    -0.0066352353690546
 114     0.046040793484014
 115    -0.095672992861815
 116    -0.049343551605337
 117    0.0084523229370675
 118     0.027706438348504
 119    -0.012255050998941
 120      0.01778945169156
 121     0.059268023625723
 122    -0.023703887921723
 123     0.029679972950151
 124     0.075809362306138
 125    -0.034890452411964
 126      0.00235536455786
 127    0.00088704723119104
 128    0.0033471481218537
 129    0.0052589231791437
 130    -0.0031050152312599
 131    -0.0074019234334274
 132     0.051267813692172
 133      -0.1052763592497
 134    -0.058269753409406
 135    -0.002737371015156
 136     0.018653544406411
 137     0.027998045470428
 138    -0.0060539202739034
 139     0.038312699034281
 140     0.059670111882628
 141    -0.012973652602708
 142     0.053536354576786
 143     0.079802481487392
 144    -0.0050792770974849
 145    -0.00035081855104341
 146    -0.0061542864995507
 147    0.0025551965472482
 148    -7.2905350286975e-05
 149    -0.0068592861572029
 150      0.04766081632956
 151     -0.10032976404863
 152    -0.046632135871773
 153    -0.016866596189549
 154     0.012198030855118
 155    -0.023292981159076
 156     -0.03574404166138
 157     0.027142611061464
 158    -0.049116711894471
 159    -0.050950352325331
 160     0.030982581324777
 161    -0.061941384327677
 162    -0.0020236293333198
 163    -0.0055807538565994
 164    0.0041345616533149
 165    -0.00084509021274689
 166    0.0035513189603363
 167    -0.0066352350412447
 168     0.046040791338566
 169    -0.095672987706831
 170    -0.049343548429684
 171    -0.008452322999759
 172     -0.02770643707554
 173    -0.012255050243813
 174    -0.017789451461559
 175    -0.059268020449608
 176    -0.023703886553058
 177    -0.029679972834812
 178    -0.075809358917677
 179    -0.034890450108961
 180    0.0023553643752496
 181    -0.00088704718877385
 182    -0.0033471478845094
 183    0.0052589228528623
 184    -0.003105015022385
 Sym= B
 Ene=               4