[Molden Format]
made by pyscf v[2.1.1]
[Atoms] (AU)
Fe   1   26     3.17068844873907     0.00098706064664     0.12237737881307
O   2   8     0.00000000000000     0.00000000000000    -0.89004350580623
Fe   3   26    -3.17068844873907    -0.00098706064664     0.12237737881307
Cl   4   17     3.53383895113107    -2.07485195383062     3.76228752659000
Cl   5   17     5.54152580550813    -1.85590924879884    -2.78672786652360
Cl   6   17     4.48169216485503     3.92976278472880    -0.95330240907949
Cl   7   17    -3.53383895113107     2.07485195383062     3.76228752659000
Cl   8   17    -5.54152580550813     1.85590924879884    -2.78672786652360
Cl   9   17    -4.48169216485503    -3.92976278472880    -0.95330240907949
[GTO]
1 0
 s    6 1.00
          60923.640643  0.0017552243692958
          9147.8893982   0.013449023284001
          2081.3505927   0.066678874640978
          587.55977067    0.23176348548844
           191.0904399    0.46945550248188
          65.732730112     0.3596824938678
 s    3 1.00
          127.25891928   -0.10723431835929
           14.83091301    0.62971616328466
          6.0653307408    0.44472317896179
 s    3 1.00
           10.44994371   -0.21694289195548
          1.7245228003    0.69457867408393
         0.71772177325    0.43298308896347
 s    1 1.00
        0.091449828308                   1
 s    1 1.00
        0.033706691021                   1
 p    5 1.00
          773.43750995  0.0091440529992506
          182.15149714   0.067887577136571
          57.547272758    0.26167978878504
          20.614988935    0.51088040113251
           7.634855789    0.33235475570224
 p    3 1.00
           3.871932799    0.33193859098144
          1.4924724132     0.5553666555499
         0.56061284958    0.23106034201617
 p    1 1.00
              0.134915                   1
 d    4 1.00
          38.968133419   0.033335938558743
          10.800067078    0.17766212505983
          3.6136457999      0.441281781625
          1.2129967888    0.57089200490673
 d    1 1.00
          0.3652439317                   1
 f    1 1.00
                 1.598                   1

2 0
 s    5 1.00
          2266.1767785  -0.0053893503921743
          340.87010191   -0.04023472138896
          77.363135167   -0.18008184205526
           21.47964494   -0.46828857657651
          6.6589433124   -0.44692617160187
 s    1 1.00
         0.80975975668                   1
 s    1 1.00
         0.25530772234                   1
 p    3 1.00
          17.721504317   0.062630248763161
           3.863550544    0.33331138482352
          1.0480920883    0.74148638308122
 p    1 1.00
         0.27641544411                   1
 d    1 1.00
                   1.2                   1

3 0
 s    6 1.00
          60923.640643  0.0017552243692958
          9147.8893982   0.013449023284001
          2081.3505927   0.066678874640978
          587.55977067    0.23176348548844
           191.0904399    0.46945550248188
          65.732730112     0.3596824938678
 s    3 1.00
          127.25891928   -0.10723431835929
           14.83091301    0.62971616328466
          6.0653307408    0.44472317896179
 s    3 1.00
           10.44994371   -0.21694289195548
          1.7245228003    0.69457867408393
         0.71772177325    0.43298308896347
 s    1 1.00
        0.091449828308                   1
 s    1 1.00
        0.033706691021                   1
 p    5 1.00
          773.43750995  0.0091440529992506
          182.15149714   0.067887577136571
          57.547272758    0.26167978878504
          20.614988935    0.51088040113251
           7.634855789    0.33235475570224
 p    3 1.00
           3.871932799    0.33193859098144
          1.4924724132     0.5553666555499
         0.56061284958    0.23106034201617
 p    1 1.00
              0.134915                   1
 d    4 1.00
          38.968133419   0.033335938558743
          10.800067078    0.17766212505983
          3.6136457999      0.441281781625
          1.2129967888    0.57089200490673
 d    1 1.00
          0.3652439317                   1
 f    1 1.00
                 1.598                   1

4 0
 s    5 1.00
          10449.827566  0.0054265953789407
          1571.7365221   0.040626378128836
          357.12065523    0.18359747852877
          100.25185935    0.47438948768198
          30.812727554    0.43735181104122
 s    3 1.00
          51.923789434  -0.092754154848099
          5.7045760975    0.56380825544207
          2.3508376809    0.50367044629712
 s    1 1.00
         0.44605124672                   1
 s    1 1.00
          0.1684885619                   1
 p    5 1.00
          307.66790569  -0.0088797025588865
          72.102015515  -0.064284071721237
          22.532680262   -0.24288739736006
          7.8991765444   -0.48340836369878
          2.8767268321   -0.38952563875509
 p    1 1.00
         0.77459363955                   1
 p    1 1.00
         0.21037699698                   1
 d    1 1.00
                  0.65                   1

5 0
 s    5 1.00
          10449.827566  0.0054265953789407
          1571.7365221   0.040626378128836
          357.12065523    0.18359747852877
          100.25185935    0.47438948768198
          30.812727554    0.43735181104122
 s    3 1.00
          51.923789434  -0.092754154848099
          5.7045760975    0.56380825544207
          2.3508376809    0.50367044629712
 s    1 1.00
         0.44605124672                   1
 s    1 1.00
          0.1684885619                   1
 p    5 1.00
          307.66790569  -0.0088797025588865
          72.102015515  -0.064284071721237
          22.532680262   -0.24288739736006
          7.8991765444   -0.48340836369878
          2.8767268321   -0.38952563875509
 p    1 1.00
         0.77459363955                   1
 p    1 1.00
         0.21037699698                   1
 d    1 1.00
                  0.65                   1

6 0
 s    5 1.00
          10449.827566  0.0054265953789407
          1571.7365221   0.040626378128836
          357.12065523    0.18359747852877
          100.25185935    0.47438948768198
          30.812727554    0.43735181104122
 s    3 1.00
          51.923789434  -0.092754154848099
          5.7045760975    0.56380825544207
          2.3508376809    0.50367044629712
 s    1 1.00
         0.44605124672                   1
 s    1 1.00
          0.1684885619                   1
 p    5 1.00
          307.66790569  -0.0088797025588865
          72.102015515  -0.064284071721237
          22.532680262   -0.24288739736006
          7.8991765444   -0.48340836369878
          2.8767268321   -0.38952563875509
 p    1 1.00
         0.77459363955                   1
 p    1 1.00
         0.21037699698                   1
 d    1 1.00
                  0.65                   1

7 0
 s    5 1.00
          10449.827566  0.0054265953789407
          1571.7365221   0.040626378128836
          357.12065523    0.18359747852877
          100.25185935    0.47438948768198
          30.812727554    0.43735181104122
 s    3 1.00
          51.923789434  -0.092754154848099
          5.7045760975    0.56380825544207
          2.3508376809    0.50367044629712
 s    1 1.00
         0.44605124672                   1
 s    1 1.00
          0.1684885619                   1
 p    5 1.00
          307.66790569  -0.0088797025588865
          72.102015515  -0.064284071721237
          22.532680262   -0.24288739736006
          7.8991765444   -0.48340836369878
          2.8767268321   -0.38952563875509
 p    1 1.00
         0.77459363955                   1
 p    1 1.00
         0.21037699698                   1
 d    1 1.00
                  0.65                   1

8 0
 s    5 1.00
          10449.827566  0.0054265953789407
          1571.7365221   0.040626378128836
          357.12065523    0.18359747852877
          100.25185935    0.47438948768198
          30.812727554    0.43735181104122
 s    3 1.00
          51.923789434  -0.092754154848099
          5.7045760975    0.56380825544207
          2.3508376809    0.50367044629712
 s    1 1.00
         0.44605124672                   1
 s    1 1.00
          0.1684885619                   1
 p    5 1.00
          307.66790569  -0.0088797025588865
          72.102015515  -0.064284071721237
          22.532680262   -0.24288739736006
          7.8991765444   -0.48340836369878
          2.8767268321   -0.38952563875509
 p    1 1.00
         0.77459363955                   1
 p    1 1.00
         0.21037699698                   1
 d    1 1.00
                  0.65                   1

9 0
 s    5 1.00
          10449.827566  0.0054265953789407
          1571.7365221   0.040626378128836
          357.12065523    0.18359747852877
          100.25185935    0.47438948768198
          30.812727554    0.43735181104122
 s    3 1.00
          51.923789434  -0.092754154848099
          5.7045760975    0.56380825544207
          2.3508376809    0.50367044629712
 s    1 1.00
         0.44605124672                   1
 s    1 1.00
          0.1684885619                   1
 p    5 1.00
          307.66790569  -0.0088797025588865
          72.102015515  -0.064284071721237
          22.532680262   -0.24288739736006
          7.8991765444   -0.48340836369878
          2.8767268321   -0.38952563875509
 p    1 1.00
         0.77459363955                   1
 p    1 1.00
         0.21037699698                   1
 d    1 1.00
                  0.65                   1

[5d]
[7f]
[9g]

[MO]
 Sym= A
 Ene=               0
 Spin= Alpha
 Occup=    1.00000
   1    0.0020170008254687
   2    -0.0023189327954776
   3     0.041399213937361
   4       0.1135908308973
   5    -0.038217324209946
   6    -0.033628690125123
   7    -0.00071857174916088
   8    -0.015612555917502
   9      0.11267059170604
  10    0.0022280496104258
  11     0.051173015341464
  12     0.024067806076726
  13    -0.00053219213647105
  14    0.0091148644975965
  15    -0.0041685459193958
  16     0.010931432120361
  17    -0.0061642178021708
  18     0.014706413644267
  19    -0.00035621711875975
  20    0.00044450715744745
  21    0.0010310798602119
  22    -0.0047380877469094
  23     0.001642093882432
  24    -0.00025372586000192
  25    0.0012775998550246
  26    0.00079761287635962
  27    -0.0010122509671205
  28    -0.0012134951705714
  29    0.00015851611475877
  30    -0.0016204812806845
  31    -0.00035574029295951
  32     0.012437563037908
  33      0.10680835754927
  34     0.081470629742443
  35     0.073199665445318
  36    -0.00092193745795454
  37    -0.0010880839406488
  38     0.081023986715713
  39    -0.0020953242632796
  40    0.00021048250921294
  41    -0.0010331487084216
  42    0.0032028451607922
  43    -7.8096425402397e-05
  44    0.0022148077833279
  45    -3.6218715162574e-05
  46    -0.0070851720464455
  47     0.014774918770903
  48     -0.12013609738504
  49     -0.16133213589786
  50     0.049237544327385
  51    -0.040647722161813
  52    -0.0010511210709141
  53     0.017149661362307
  54      0.13518858804319
  55    0.0032607646591777
  56    -0.056044471586401
  57     0.053523426242395
  58    -0.00091176830673556
  59    -0.022263497558023
  60    -0.0060808438074292
  61    -0.0065391386722566
  62    -0.010516431839858
  63     0.006712804648751
  64    0.0011541666068448
  65    -0.0075151197325553
  66    -0.011948934517497
  67    -0.0081946705535932
  68     0.013336133345372
  69    0.00080056976610486
  70    -0.0010297867460252
  71    0.00055729851588459
  72    -0.0017477790922782
  73    0.00044424665780116
  74    -0.00031907433414027
  75    -0.00086657779380138
  76    -0.00061237986590931
  77    0.0054565016334936
  78     -0.03826859028269
  79     0.083145296592376
  80     0.044368395887871
  81    0.0066766716121881
  82      0.01420412649194
  83     -0.02038332508653
  84     0.010621813491321
  85     0.030187669399063
  86    -0.045443866540046
  87     0.017342180575949
  88     0.040059084172633
  89    -0.058261572819047
  90    0.0044350077794478
  91    -8.5418773079585e-05
  92    -0.0056204552227226
  93    -0.0018039185838428
  94    0.00011324007452204
  95    0.0052594672217994
  96    -0.037127604694845
  97     0.081344097837961
  98     0.048654842933419
  99    -0.0041565778758702
 100    0.0085041384003598
 101     0.018930843718011
 102    -0.013926749647365
 103     0.020227794669589
 104     0.040859474149618
 105    -0.017313335815512
 106     0.024963248805198
 107     0.054807072236135
 108    0.0023444587643771
 109    -0.0044690942435314
 110    0.0039644152521981
 111    0.00046019339404441
 112    -0.0026933352274711
 113     0.004911135036111
 114    -0.034658497521595
 115     0.076139523847169
 116     0.044693752887673
 117    0.0018689095726219
 118    -0.018839558589096
 119     0.010990180512229
 120    -0.00024111459894163
 121    -0.043031267882351
 122     0.021367554393737
 123    0.0019496028090311
 124     -0.05583523960733
 125     0.031465842366233
 126    -0.002213087152197
 127    -0.00065589984626348
 128    -0.0032265607043446
 129    -0.0043484244553663
 130    0.0023726161601399
 131    -0.0092850753817438
 132      0.06479829233748
 133     -0.13777548019145
 134    -0.073093223853567
 135    0.0058302200738787
 136     0.023722857796945
 137     0.034823110730166
 138      0.00861418650826
 139     0.050013298948931
 140     0.076444695018205
 141      0.01217450460808
 142     0.065798074850354
 143     0.097955061211432
 144    -0.0070136002146804
 145    0.00017357339757082
 146    -0.0088380780439516
 147    0.0028578001014585
 148    0.00011883010089004
 149    -0.0089795179737737
 150     0.062950693018532
 151     -0.13486882224423
 152    -0.078258178596541
 153    -0.013321629765613
 154     0.015133971553989
 155    -0.031378579008469
 156    -0.033367933275703
 157     0.034802753210503
 158    -0.067028558494922
 159    -0.046055339880137
 160     0.043415732276449
 161    -0.089172859204842
 162    -0.0037228506052232
 163    -0.0075786075498847
 164    0.0064358051483581
 165    -0.00059173909404756
 166     0.004523128302089
 167    -0.0084536424173512
 168      0.05923288111212
 169     -0.12662796184812
 170    -0.073742058564501
 171    -0.0024580067228251
 172    -0.033521648012762
 173    -0.017241955603817
 174    -0.0094967369698303
 175    -0.074383575890721
 176    -0.033571872802101
 177     -0.01332163450847
 178      -0.0975554395684
 179    -0.048755339728371
 180    0.0035352297115291
 181    -0.0013137450869751
 182    -0.0051569167657898
 183    0.0073001087839115
 184    -0.003921574647477
 Sym= A
 Ene=               1
 Spin= Alpha
 Occup=    1.00000
   1    0.00052574718285113
   2    -0.0015699611397375
   3    0.0070002761516664
   4    -0.0074469133637442
   5    0.0013408820059478
   6    0.0024284752522991
   7    -0.00052538474188213
   8    -0.00083763859105637
   9    -0.0077508893046447
  10    0.0016720505223185
  11    0.0026746112166303
  12    0.0067288818571128
  13    -0.0030768697790771
  14    -0.0085391237510585
  15    0.0012752476237223
  16    0.00071361451317986
  17    7.1256961776983e-06
  18     -0.00195905854142
  19    0.0006075909584649
  20    0.0014003379904632
  21    0.0023066272816245
  22    0.00015476322268297
  23    -0.00081310669889153
  24    0.00085977518251235
  25    4.9495296781918e-05
  26    -0.00039237230054874
  27    -1.778268114942e-05
  28    -9.1369602086126e-05
  29    -6.2287381419122e-05
  30    0.00028375448815226
  31    -0.00012035643886991
  32    0.0018812243920003
  33    0.0050967824898841
  34    0.0025537362739734
  35    -0.0086483864573854
  36     -0.01439973733462
  37    -0.049584912401152
  38    -0.0094574936068451
  39    -0.014021458953897
  40    -0.048219577465534
  41    -0.00020486316905355
  42    -0.0012000329439847
  43    0.00019746568071685
  44    -0.0001182610450064
  45    -0.0001957292181983
  46    0.0012624744301192
  47    -0.0037551393587904
  48     0.016795124211693
  49    -0.031469241005713
  50     0.013929159754838
  51    -0.00067801989819176
  52    -0.0014776969243879
  53    -0.0048082400533739
  54    0.0021473194318833
  55    0.0046677566308548
  56     0.014936499479711
  57    -0.0023346540059117
  58    -0.0057445578952966
  59    -0.021809710771202
  60      0.20129517106762
  61      0.47894349029419
  62       0.4827303846875
  63      0.43357080796783
  64      0.28034089306735
  65     0.054083637159567
  66      0.12836789477992
  67      0.13067659564515
  68      0.11765350448467
  69     0.075327869636565
  70     0.001065844247508
  71    0.0010670254540566
  72    0.00098054201324966
  73    -0.0002592159058449
  74    -0.00029218080057917
  75    -0.00088712756817906
  76    -0.00057294546750306
  77    0.00022416267764455
  78    -0.0015135706916969
  79    0.0028146549671663
  80    0.0014910300546479
  81    -0.0015525845511992
  82    0.00083853258399219
  83    -0.00078408711078233
  84    -0.0028636664714401
  85    0.0014347027400513
  86    -0.0013731405350123
  87    -0.0037564121711616
  88     0.003280189888989
  89    -0.0030828535321862
  90    0.00010629936762616
  91    -0.0003118126624461
  92    5.1473369940414e-05
  93    -0.0001767552222641
  94    0.00024837522436134
  95    -7.741490522957e-05
  96    0.00050917068203479
  97    -0.00037031699472581
  98    -0.0032623783308348
  99    0.0010522168374081
 100    7.6967851531791e-05
 101    0.00069412193201191
 102    0.0018311212911151
 103    0.00018378405390884
 104    0.0012500879606861
 105    0.0035837885988304
 106    -0.00080130671439772
 107    0.00049861149639763
 108    -4.5390890782679e-05
 109    0.00014082319635241
 110    -5.5476550257489e-05
 111    9.5034400006816e-05
 112     3.05859285882e-05
 113    0.00010070385587337
 114    -0.00068137262240976
 115    0.0014329182470823
 116    -0.00028895002826141
 117    -0.0007540613949742
 118    -0.00040693526168323
 119    0.00078926538832361
 120    -0.0013704755683827
 121    -0.00074411085746299
 122    0.0013015297540385
 123    -0.0019864325342019
 124    -0.00093053526507541
 125    0.0026917331389181
 126    0.0001061455963231
 127    0.00013540675860132
 128    1.2870041136715e-05
 129    -0.00010585473386463
 130    -0.00017965845961258
 131    -0.001367803558427
 132    0.0089692200279338
 133    -0.011347215919909
 134    -0.0065346706052559
 135     -0.01807107100253
 136    0.0080035130447024
 137     0.010004455761334
 138    -0.030642159346658
 139     0.013808768520143
 140     0.017432577010365
 141    -0.050506291704123
 142     0.022134070917606
 143     0.027766976736276
 144    -0.00048518765508965
 145    -0.0019647057151721
 146    0.0004517738365527
 147    0.00086838258957606
 148    -0.0012409574592882
 149    8.1874417973311e-05
 150    -0.00055759288551787
 151    0.0022451853854068
 152    -0.004530346585879
 153     0.011791107071795
 154     0.025701019821961
 155    0.0080044099904859
 156     0.019903133944066
 157     0.043317402259226
 158     0.013350245683226
 159     0.031869058145036
 160     0.073903377752405
 161     0.022203306601276
 162    -0.00070917396954387
 163    -0.0013556838870257
 164    -0.0016571099531054
 165    -0.0020452239765574
 166    -0.0012718934556344
 167    0.00020085753321441
 168    -0.0013304927193402
 169    0.0030810232177065
 170    -0.0026417318873788
 171     0.013244289074976
 172    -0.0077782359107486
 173      0.02192287277897
 174     0.022201994792787
 175    -0.013102657677106
 176     0.036790145236976
 177     0.037137998769919
 178    -0.023095633897134
 179     0.062105478462236
 180    -0.0009898820221171
 181    -0.0012773991190266
 182    -0.0015530998885744
 183    -0.0016691708624342
 184    -0.00079496551670762
 Sym= A
 Ene=               2
 Spin= Alpha
 Occup=    1.00000
   1    0.00051488386679063
   2    -0.0015250851956321
   3    0.0069092981550423
   4    -0.0083677278956963
   5      0.00201540247395
   6    0.0021767133921759
   7    0.0022255628418234
   8    -0.00050574154036488
   9    -0.0069497095631111
  10    -0.0070862501130501
  11    0.0016208243378285
  12    0.0055215115667795
  13     0.014249605127658
  14    -0.0069230989311951
  15    0.0013746745541539
  16    0.0001305220925206
  17    -0.00042130816661661
  18    -0.0014505974652559
  19    -0.0021720378455826
  20    0.0012381715548162
  21    0.0019759921292533
  22    -0.0012196637726861
  23    -0.000517043616062
  24    -0.0049898545264963
  25    2.0144247768299e-05
  26    -0.00033436569514413
  27    -0.00014483022917018
  28    -0.00011147968088275
  29    0.00034979232149772
  30    0.00027010086598381
  31    0.00066390636762663
  32    0.0022475313026214
  33    0.0058798220546774
  34    0.0028871779012641
  35    -0.0092134906474485
  36     0.076074828114249
  37    -0.042438557353746
  38    -0.010232396908207
  39     0.073251892293617
  40    -0.041430301992468
  41    -0.00063102110873996
  42    -0.0012348060622087
  43    0.0011389830084405
  44    -0.00049702379072433
  45    0.0016929106717181
  46    0.00083342290456825
  47    -0.002479752168073
  48     0.011079234985434
  49    -0.021070785978447
  50    0.0075544874454484
  51    -4.408353492247e-05
  52    0.0065214085801384
  53    -0.0033023055725133
  54    0.00011512250578943
  55    -0.020054897095377
  56     0.010088176955926
  57    0.00092727162542041
  58      0.02826143274524
  59    -0.015721005170346
  60      -0.5247893205563
  61      0.15477636684408
  62      0.46394355936588
  63     -0.13091969094611
  64     -0.48633748051725
  65      -0.1409816783921
  66     0.040740914575522
  67       0.1245980448029
  68    -0.034781653379472
  69     -0.12900282189566
  70    -0.00059363468180873
  71     0.001349603088346
  72    0.00055241028456659
  73    -0.00067544106556419
  74    -0.0017073268108694
  75    7.8919435581393e-05
  76    0.0015208093559266
  77    0.0002924102482286
  78    -0.0019351035461781
  79     0.002593993088911
  80    0.0053213216343708
  81    -0.002430596051137
  82    -3.7291192545752e-05
  83    -0.0019501618089959
  84    -0.0042739426971456
  85    -0.00011350757764456
  86    -0.0033027775045599
  87    -0.0065491834917053
  88    0.0011618850822365
  89    -0.0080870273776078
  90    3.6912561723999e-05
  91    -0.00054286618864391
  92    -6.1547700547705e-05
  93    -0.00029642306679852
  94    9.0980720904694e-05
  95    9.889550907494e-05
  96    -0.0006636863796401
  97    0.0012810804692724
  98    9.7312568302896e-05
  99    -0.00089671669533026
 100    -0.00045666199862844
 101    0.00078704217930966
 102    -0.0016063835670771
 103    -0.00064709637628299
 104    0.0012643295539749
 105    -0.0024753977314431
 106    -0.0023337956455063
 107    0.0028358573179773
 108    0.00017694922681822
 109    0.00012587917807787
 110    -2.1442540771257e-05
 111    -0.00012321720365623
 112    -2.4108999593496e-05
 113    -0.00027012554007569
 114    0.0017976788199933
 115    -0.0026167625596184
 116    -0.0045238249331751
 117    0.0030061173154238
 118    0.00081786899302257
 119    0.00082798201335946
 120    0.0054029751402679
 121    0.0013606466552864
 122    0.0014994880832223
 123    0.0077189260507267
 124    0.0046329498627579
 125    0.0013589826220037
 126    -0.00012663964075391
 127    0.00021916989331103
 128    0.00019121917952956
 129     0.000535043871565
 130    0.00021072647962877
 131    -7.900253237951e-05
 132    0.00051251482283543
 133    -0.00010578277575156
 134    -0.0010166242598451
 135    0.0031730810759212
 136    -0.022896936393118
 137     0.013944421308021
 138     0.005331767252234
 139    -0.038615605585522
 140     0.023631832696979
 141    0.0090283694294261
 142    -0.065522892525685
 143     0.039931908714236
 144    0.0025944406609889
 145    0.00043611591161709
 146    -0.0013270707432284
 147    0.0014283596301224
 148    0.00011700361195557
 149    0.00042605623353058
 150    -0.0028453424548639
 151    0.0053327050586545
 152    -0.003623857059342
 153     0.016228692977746
 154    -0.0098706677742327
 155    -0.013859322542881
 156     0.027545719365056
 157    -0.016574548037468
 158    -0.023278593684418
 159     0.043782677854844
 160    -0.028271221447943
 161    -0.040372769031604
 162    0.0023956318784869
 163    -2.5150475482262e-05
 164    9.5047285340777e-06
 165    -0.00086353106680688
 166    0.0012544579698317
 167    -0.0010875892834937
 168    0.0071239806215294
 169    -0.009374032945492
 170    -0.0032731515288345
 171    -0.015793550308304
 172    -0.0090163879674845
 173    0.0078060697881034
 174    -0.026650421605761
 175    -0.015469876640078
 176     0.013070845012432
 177    -0.044003681935805
 178    -0.024868261225307
 179     0.022775825825093
 180    -0.00094656039863412
 181    0.0002119345589812
 182    -0.0011504978487369
 183    0.00078569434401515
 184    0.0011652291483147
 Sym= A
 Ene=               3
 Spin= Alpha
 Occup=    1.00000
   1    -0.00099724033825057
   2    0.0029515374082006
   3    -0.013400585597063
   4     0.014466105710851
   5    -0.0046655903894559
   6    -0.0043688509607992
   7    0.0025493865368791
   8    0.0010423946006423
   9     0.014013367405043
  10    -0.008115105365065
  11    -0.0033440834419943
  12    -0.013263301057899
  13     0.015551065886134
  14     0.013740099813669
  15    -0.0018787849519406
  16    -7.8200152673937e-05
  17    -0.00050362599138768
  18    0.0034024829482211
  19    -0.0022532445933315
  20    -0.0021828916380576
  21     -0.00339598134174
  22    -0.0016094055784972
  23    0.0020288138457063
  24    -0.0052258597161337
  25    -1.6813314931428e-05
  26    0.00060519430597052
  27    -6.3329954541578e-05
  28    1.2598630868632e-05
  29    0.0003724451864294
  30    -0.00049413655517012
  31    0.00070224170066924
  32    -0.0049522555905726
  33    -0.012110735836751
  34    -0.0094532742020305
  35     0.024701384690711
  36     0.080574295798634
  37     0.072928725850716
  38     0.027708648065121
  39     0.078729708553069
  40     0.070917844386668
  41    0.00072504458911393
  42     0.002099957129187
  43    0.0011412673295666
  44    0.0011128000532351
  45    0.0018368762945097
  46    0.00060853358390986
  47    -0.001814242386493
  48     0.008086882650718
  49    -0.010043919555919
  50    -0.0019742416688724
  51    -0.0023363887630142
  52    -0.0044964614847126
  53    -0.0042158089320865
  54    0.0072438264265391
  55     0.014206161262572
  56     0.013410042414198
  57    -0.0063492231499737
  58    -0.0073195300721974
  59    -0.0058593368129748
  60      0.55573373156538
  61     -0.37269620980428
  62      0.30124322203496
  63      0.11361236064069
  64     -0.46174646384767
  65      0.14551693864787
  66    -0.096016565855501
  67     0.078683804453414
  68     0.031178644811377
  69     -0.11884562694974
  70    0.00018544042874891
  71    -0.0018424290097901
  72    -5.7470488290698e-05
  73    0.0015978291813467
  74     -0.00134044725433
  75    0.0002227891826765
  76     0.001883425784188
  77    -0.00017049919607446
  78    0.0011401136925148
  79    -0.001725045104348
  80    -0.0024248573020126
  81    0.00042042230321064
  82    -0.0015521388337017
  83    0.00049730744062755
  84    0.00072036308549554
  85    -0.0024571555497783
  86    0.00090432183091673
  87    0.0020352120628987
  88    -0.0065318272294749
  89    0.0020248183160949
  90    -4.313459270032e-05
  91    0.0003101117817303
  92    -0.00012781014117351
  93    5.3133615159065e-05
  94    -0.00031408146525282
  95    0.00018101868868926
  96    -0.0011886126104164
  97    0.00091503143900871
  98    0.0072151148312153
  99    -0.0025471171367157
 100    -0.00054190482385613
 101    -0.00090445372231219
 102    -0.0044513097677092
 103    -0.0009937574544526
 104    -0.0017626264133589
 105    -0.008326190523952
 106    0.00016375101728784
 107    0.0010737438329068
 108    0.00015525851910681
 109    -0.00028851713292093
 110    0.00013359621999444
 111    -0.00018912012939672
 112    -0.00016096990902067
 113    -0.00040050709717522
 114    0.0026828483225577
 115    -0.004667435785488
 116    -0.0029472414169031
 117    0.0033146510060274
 118    0.0015382442926138
 119    -0.00099051976703302
 120    0.0058706756883223
 121    0.0027425884692059
 122    -0.0014937002482376
 123     0.009479743443984
 124    0.0053205185133922
 125    -0.004615013868764
 126    -0.00038494983995782
 127    -0.00010768424795524
 128    0.00010945553932248
 129    0.00050855186136748
 130    0.00063950513757527
 131    -0.0036842559790976
 132     0.024146621756341
 133    -0.030150272624181
 134    -0.030433161737686
 135     0.010490711919206
 136     0.027802840103723
 137     0.029951513713136
 138      0.01749777263375
 139     0.047315335886978
 140     0.051387892732126
 141      0.02978544753398
 142     0.083035102576433
 143      0.09186378140804
 144    -0.0011947047335988
 145    0.0017922832850759
 146    -4.8774475421007e-05
 147    1.0418917768668e-05
 148    0.00041264209441122
 149    0.00049070854167547
 150    -0.0031845107765905
 151     0.003460131552208
 152    0.0058604233519342
 153    0.00068600737662078
 154    0.0051535525232004
 155     0.011277395272628
 156     0.001207127479292
 157    0.0089057773395861
 158     0.019222276808975
 159    0.0027498137925283
 160     0.013263497745432
 161     0.032102202746132
 162    -0.00081715248762142
 163    -0.00044144450007916
 164    -0.00034345162139575
 165    -0.000385283082504
 166    -0.0015494618898935
 167    0.0028928494300763
 168    -0.018835372162987
 169     0.022654912679827
 170     0.025959841714043
 171     -0.00049587613978
 172     0.029140864562445
 173     0.021810550069305
 174    -0.00057243606657539
 175     0.049168087172424
 176     0.036474007185996
 177    -2.9470469076489e-05
 178     0.088167415333475
 179     0.063881074225745
 180    -0.00070082708068502
 181    -0.00026002598147685
 182    -0.00014760545359389
 183    -0.0011235027322914