[Molden Format]
made by pyscf v[2.1.1]
[Atoms] (AU)
Fe   1   26     3.17068844873907     0.00098706064664     0.12237737881307
O   2   8     0.00000000000000     0.00000000000000    -0.89004350580623
Fe   3   26    -3.17068844873907    -0.00098706064664     0.12237737881307
Cl   4   17     3.53383895113107    -2.07485195383062     3.76228752659000
Cl   5   17     5.54152580550813    -1.85590924879884    -2.78672786652360
Cl   6   17     4.48169216485503     3.92976278472880    -0.95330240907949
Cl   7   17    -3.53383895113107     2.07485195383062     3.76228752659000
Cl   8   17    -5.54152580550813     1.85590924879884    -2.78672786652360
Cl   9   17    -4.48169216485503    -3.92976278472880    -0.95330240907949
[GTO]
1 0
 s    6 1.00
          60923.640643  0.0017552243692958
          9147.8893982   0.013449023284001
          2081.3505927   0.066678874640978
          587.55977067    0.23176348548844
           191.0904399    0.46945550248188
          65.732730112     0.3596824938678
 s    3 1.00
          127.25891928   -0.10723431835929
           14.83091301    0.62971616328466
          6.0653307408    0.44472317896179
 s    3 1.00
           10.44994371   -0.21694289195548
          1.7245228003    0.69457867408393
         0.71772177325    0.43298308896347
 s    1 1.00
        0.091449828308                   1
 s    1 1.00
        0.033706691021                   1
 p    5 1.00
          773.43750995  0.0091440529992506
          182.15149714   0.067887577136571
          57.547272758    0.26167978878504
          20.614988935    0.51088040113251
           7.634855789    0.33235475570224
 p    3 1.00
           3.871932799    0.33193859098144
          1.4924724132     0.5553666555499
         0.56061284958    0.23106034201617
 p    1 1.00
              0.134915                   1
 d    4 1.00
          38.968133419   0.033335938558743
          10.800067078    0.17766212505983
          3.6136457999      0.441281781625
          1.2129967888    0.57089200490673
 d    1 1.00
          0.3652439317                   1
 f    1 1.00
                 1.598                   1

2 0
 s    5 1.00
          2266.1767785  -0.0053893503921743
          340.87010191   -0.04023472138896
          77.363135167   -0.18008184205526
           21.47964494   -0.46828857657651
          6.6589433124   -0.44692617160187
 s    1 1.00
         0.80975975668                   1
 s    1 1.00
         0.25530772234                   1
 p    3 1.00
          17.721504317   0.062630248763161
           3.863550544    0.33331138482352
          1.0480920883    0.74148638308122
 p    1 1.00
         0.27641544411                   1
 d    1 1.00
                   1.2                   1

3 0
 s    6 1.00
          60923.640643  0.0017552243692958
          9147.8893982   0.013449023284001
          2081.3505927   0.066678874640978
          587.55977067    0.23176348548844
           191.0904399    0.46945550248188
          65.732730112     0.3596824938678
 s    3 1.00
          127.25891928   -0.10723431835929
           14.83091301    0.62971616328466
          6.0653307408    0.44472317896179
 s    3 1.00
           10.44994371   -0.21694289195548
          1.7245228003    0.69457867408393
         0.71772177325    0.43298308896347
 s    1 1.00
        0.091449828308                   1
 s    1 1.00
        0.033706691021                   1
 p    5 1.00
          773.43750995  0.0091440529992506
          182.15149714   0.067887577136571
          57.547272758    0.26167978878504
          20.614988935    0.51088040113251
           7.634855789    0.33235475570224
 p    3 1.00
           3.871932799    0.33193859098144
          1.4924724132     0.5553666555499
         0.56061284958    0.23106034201617
 p    1 1.00
              0.134915                   1
 d    4 1.00
          38.968133419   0.033335938558743
          10.800067078    0.17766212505983
          3.6136457999      0.441281781625
          1.2129967888    0.57089200490673
 d    1 1.00
          0.3652439317                   1
 f    1 1.00
                 1.598                   1

4 0
 s    5 1.00
          10449.827566  0.0054265953789407
          1571.7365221   0.040626378128836
          357.12065523    0.18359747852877
          100.25185935    0.47438948768198
          30.812727554    0.43735181104122
 s    3 1.00
          51.923789434  -0.092754154848099
          5.7045760975    0.56380825544207
          2.3508376809    0.50367044629712
 s    1 1.00
         0.44605124672                   1
 s    1 1.00
          0.1684885619                   1
 p    5 1.00
          307.66790569  -0.0088797025588865
          72.102015515  -0.064284071721237
          22.532680262   -0.24288739736006
          7.8991765444   -0.48340836369878
          2.8767268321   -0.38952563875509
 p    1 1.00
         0.77459363955                   1
 p    1 1.00
         0.21037699698                   1
 d    1 1.00
                  0.65                   1

5 0
 s    5 1.00
          10449.827566  0.0054265953789407
          1571.7365221   0.040626378128836
          357.12065523    0.18359747852877
          100.25185935    0.47438948768198
          30.812727554    0.43735181104122
 s    3 1.00
          51.923789434  -0.092754154848099
          5.7045760975    0.56380825544207
          2.3508376809    0.50367044629712
 s    1 1.00
         0.44605124672                   1
 s    1 1.00
          0.1684885619                   1
 p    5 1.00
          307.66790569  -0.0088797025588865
          72.102015515  -0.064284071721237
          22.532680262   -0.24288739736006
          7.8991765444   -0.48340836369878
          2.8767268321   -0.38952563875509
 p    1 1.00
         0.77459363955                   1
 p    1 1.00
         0.21037699698                   1
 d    1 1.00
                  0.65                   1

6 0
 s    5 1.00
          10449.827566  0.0054265953789407
          1571.7365221   0.040626378128836
          357.12065523    0.18359747852877
          100.25185935    0.47438948768198
          30.812727554    0.43735181104122
 s    3 1.00
          51.923789434  -0.092754154848099
          5.7045760975    0.56380825544207
          2.3508376809    0.50367044629712
 s    1 1.00
         0.44605124672                   1
 s    1 1.00
          0.1684885619                   1
 p    5 1.00
          307.66790569  -0.0088797025588865
          72.102015515  -0.064284071721237
          22.532680262   -0.24288739736006
          7.8991765444   -0.48340836369878
          2.8767268321   -0.38952563875509
 p    1 1.00
         0.77459363955                   1
 p    1 1.00
         0.21037699698                   1
 d    1 1.00
                  0.65                   1

7 0
 s    5 1.00
          10449.827566  0.0054265953789407
          1571.7365221   0.040626378128836
          357.12065523    0.18359747852877
          100.25185935    0.47438948768198
          30.812727554    0.43735181104122
 s    3 1.00
          51.923789434  -0.092754154848099
          5.7045760975    0.56380825544207
          2.3508376809    0.50367044629712
 s    1 1.00
         0.44605124672                   1
 s    1 1.00
          0.1684885619                   1
 p    5 1.00
          307.66790569  -0.0088797025588865
          72.102015515  -0.064284071721237
          22.532680262   -0.24288739736006
          7.8991765444   -0.48340836369878
          2.8767268321   -0.38952563875509
 p    1 1.00
         0.77459363955                   1
 p    1 1.00
         0.21037699698                   1
 d    1 1.00
                  0.65                   1

8 0
 s    5 1.00
          10449.827566  0.0054265953789407
          1571.7365221   0.040626378128836
          357.12065523    0.18359747852877
          100.25185935    0.47438948768198
          30.812727554    0.43735181104122
 s    3 1.00
          51.923789434  -0.092754154848099
          5.7045760975    0.56380825544207
          2.3508376809    0.50367044629712
 s    1 1.00
         0.44605124672                   1
 s    1 1.00
          0.1684885619                   1
 p    5 1.00
          307.66790569  -0.0088797025588865
          72.102015515  -0.064284071721237
          22.532680262   -0.24288739736006
          7.8991765444   -0.48340836369878
          2.8767268321   -0.38952563875509
 p    1 1.00
         0.77459363955                   1
 p    1 1.00
         0.21037699698                   1
 d    1 1.00
                  0.65                   1

9 0
 s    5 1.00
          10449.827566  0.0054265953789407
          1571.7365221   0.040626378128836
          357.12065523    0.18359747852877
          100.25185935    0.47438948768198
          30.812727554    0.43735181104122
 s    3 1.00
          51.923789434  -0.092754154848099
          5.7045760975    0.56380825544207
          2.3508376809    0.50367044629712
 s    1 1.00
         0.44605124672                   1
 s    1 1.00
          0.1684885619                   1
 p    5 1.00
          307.66790569  -0.0088797025588865
          72.102015515  -0.064284071721237
          22.532680262   -0.24288739736006
          7.8991765444   -0.48340836369878
          2.8767268321   -0.38952563875509
 p    1 1.00
         0.77459363955                   1
 p    1 1.00
         0.21037699698                   1
 d    1 1.00
                  0.65                   1

[5d]
[7f]
[9g]

[MO]
 Sym= A
 Ene=               0
 Spin= Alpha
 Occup=    1.00000
   1     0.014561718499395
   2    -0.034675977372643
   3      0.23010691079265
   4      0.25842805032398
   5    -0.074412689686327
   6    -0.038975070749673
   7    -0.0012724299753813
   8    -0.016635620671646
   9      0.12962866428076
  10    0.0039130251289179
  11     0.054366860149428
  12     0.070739700345656
  13    0.0014062808016015
  14     0.018171224552977
  15     0.010509546725234
  16    -0.016622474591044
  17    -0.016653328908412
  18    -0.015434474297701
  19    -0.0019939585890114
  20     0.011136795108814
  21    -0.016844819802005
  22    -0.011378332268728
  23    -0.019541728857365
  24    -0.0013137629722964
  25    0.0020005057884759
  26    0.0013252662438401
  27    -0.0026852270077958
  28    -0.0012358638160727
  29    0.00051281198124131
  30    -0.0022243713977589
  31    -0.00094628149428186
  32     0.056977921980103
  33      0.17389161175786
  34      0.14325981150897
  35    0.0075249499988733
  36    -0.00038344857411445
  37     0.011855575823989
  38     0.027217931874176
  39    -0.0015754392489727
  40     0.016810825711036
  41    -0.0024340622452665
  42    0.0014647289639338
  43    -7.9266344932058e-05
  44    0.0059385886306217
  45    -6.2985148898572e-06
  46     0.004550973626744
  47    -0.015366754883408
  48      0.05439869942505
  49    0.0096248679705321
  50    0.0096317785992578
  51    -0.035884199517343
  52    -0.00052260699771297
  53     0.016684081615485
  54      0.12011297314252
  55    0.0016419524877591
  56    -0.054629473906927
  57     0.027589841206118
  58    -0.0020607209603525
  59     -0.01778704835379
  60    -0.0043298076054956
  61    -0.003326769395959
  62    -0.0012012536609172
  63    0.0075509860036047
  64    -6.5508541379641e-05
  65    -0.0030193571995701
  66    -0.0057571943925274
  67    -0.0020640405198666
  68    0.0069345567846391
  69    9.1444105165366e-05
  70    0.0003537094804166
  71    -0.00032484655956788
  72    -0.00018980100740459
  73    -0.00057464476767182
  74    -4.1622269542013e-07
  75    0.00077833542563208
  76    -5.4894328966303e-05
  77     0.013915035010216
  78    -0.096610424575579
  79      0.19939908643282
  80      0.11461296246129
  81    0.0015058864890138
  82     0.035763822693819
  83    -0.054455990789579
  84    0.00059636581110546
  85      0.07427891337073
  86      -0.1168520948266
  87    -0.001756613250477
  88      0.10050608671788
  89     -0.15362053745086
  90     0.010923704176895
  91    0.0010011503018805
  92    -0.013775954950144
  93    -0.0043149440799126
  94    -0.00068232644703984
  95     0.013542995754329
  96    -0.094446728082807
  97      0.19933600601288
  98      0.10916760653095
  99    -0.028294529097664
 100     0.023756160583921
 101     0.046471283219849
 102     -0.06360825544393
 103     0.053621221394206
 104     0.098528595262952
 105    -0.086571853502485
 106     0.064233265182697
 107       0.1290456083767
 108    0.0055532552528702
 109    -0.011770161802997
 110    0.0096199532805877
 111    0.00094235244547893
 112    -0.0069113398096025
 113     0.012924283856486
 114     -0.08997135256556
 115      0.18780322715587
 116      0.10647083587705
 117    -0.011968833201954
 118    -0.053765352815709
 119     0.024353135621879
 120    -0.028020073165622
 121     -0.11641637084647
 122     0.047175639322644
 123    -0.040399208263478
 124     -0.15055509648631
 125     0.069635421063755
 126    -0.0054679351797926
 127    -0.002289536705144
 128    -0.0079542941889915
 129    -0.011160063850721
 130    0.0063516143319687
 131      -0.0013360294985
 132    0.0099532507164661
 133    -0.028189062839086
 134    -0.0087811760556079
 135     0.011068360446752
 136    0.0036282668385377
 137    0.0030436203020092
 138     0.018798516486385
 139    0.0087625550044979
 140    0.0095849026691915
 141     0.030139753174822
 142    0.0099758694225443
 143     0.010104556507089
 144    -0.00059219106100974
 145    -0.0010630204983703
 146    -0.00076215092595277
 147    0.0004874929244936
 148    -0.00067648260872791
 149    -0.0012460886469421
 150    0.0094539920045835
 151    -0.025349086830714
 152     -0.02074319445822
 153    0.0092194828097927
 154    0.00085419394397889
 155    -0.0057181548935502
 156     0.012976172284395
 157     0.003583761267632
 158    -0.013254016481109
 159     0.018362019223383
 160    0.0061862287211199
 161    -0.019387215369429
 162    -0.00086368275603753
 163    -0.00021689157882577
 164    0.00078267403390224
 165    0.00041666424633741
 166    7.7156448723567e-05
 167    -0.00094540702949205
 168    0.0074121328360546
 169    -0.022300898484838
 170    -0.016095899257077
 171      0.01063308720015
 172    -0.00090412189042128
 173    -0.0048498460369766
 174     0.016858431503008
 175    -0.0057893985651876
 176    -0.0095836224365983
 177     0.025543328260562
 178    -0.009122996462019
 179    -0.013225552256069
 180    -1.3585451837726e-05
 181    0.0001886386040811
 182    -0.00057936911825005
 183    0.00077209489809279
 184    0.00059792594884174
 Sym= A
 Ene=               1
 Spin= Alpha
 Occup=    1.00000
   1    0.0012582366795861
   2    -0.003746881805476
   3     0.016721146660198
   4    -0.031161570184127
   5     0.013695371640699
   6    0.00070154394500446
   7    0.0014768476126576
   8    -0.0047908809982141
   9    -0.0022222743969758
  10    -0.0046612412761359
  11     0.014868753400894
  12    0.0019379400326095
  13    0.0054833431605241
  14     -0.02102162737319
  15      0.20065518790838
  16     -0.47960684637328
  17     -0.48256542054392
  18       0.4340960235632
  19      0.28061159707037
  20     0.053775211054253
  21     -0.12875755311279
  22     -0.13061862291881
  23      0.11791896938859
  24     0.075480601385602
  25    0.0010554320174214
  26    -0.0010393079700304
  27    -0.00097706011574741
  28    -0.00024233030992374
  29    -0.00029679127839984
  30    0.00087208345199263
  31    0.00056369454365129
  32    0.0017528880358986
  33    0.0046508099396697
  34    0.0022362608885412
  35    0.0078235746339171
  36     0.012365225181774
  37    -0.042692047065528
  38    0.0095562699800505
  39     0.013600515205714
  40     -0.04676873136551
  41    -9.9767377000153e-05
  42    0.0011899523266951
  43    -0.00022477065609569
  44    -0.00011786249866653
  45    -0.00019457486142147
  46    0.00051665698838121
  47    -0.001552012018898
  48    0.0068431247232463
  49    -0.0066106741683999
  50    0.0010947167251571
  51    -0.0024676927844523
  52    0.00051983686815662
  53    -0.00080687157741473
  54    0.0078836330168758
  55    -0.001651530644346
  56    0.0025621404749816
  57    -0.006131291484359
  58    0.0028548642206574
  59    -0.007800921451511
  60    0.00081124162425284
  61    0.00013170113459615
  62    -4.7770267783813e-05
  63    -0.0015819686671182
  64    0.00020423027106474
  65    0.0011202146833788
  66    -0.0018838650205272
  67    -0.0001419669351079
  68    -0.0005616787703947
  69    0.00066576953767768
  70    4.4220109290074e-05
  71    0.00036244269484954
  72    1.5865347387048e-05
  73    -8.2843609825996e-05
  74    -5.8333506682691e-05
  75    -0.00026105108869505
  76    0.00011005670790286
  77    -0.0013777880413924
  78    0.0090395339714708
  79    -0.011494470068744
  80    -0.0067247135901028
  81     0.018086900232178
  82    -0.0080257566568296
  83     0.010033584148807
  84     0.030682519674652
  85    -0.013846235592679
  86     0.017489744738895
  87      0.05055533365559
  88      -0.0222864305279
  89     0.027964675968173
  90    -0.00049481556449985
  91    0.0019958454591684
  92    -0.00044468895856987
  93    0.00088839401326324
  94    -0.0012566348193807
  95    7.8157118405088e-05
  96    -0.00053141083204177
  97     0.002156800803551
  98    -0.0043453144869884
  99    -0.011772285691526
 100    -0.025707858824122
 101    0.0079880993719622
 102    -0.019870346049352
 103    -0.043341029756267
 104     0.013313847267344
 105     -0.03186534515973
 106    -0.073824865416097
 107     0.022206949915884
 108    -0.00069771864876815
 109    0.0013545806903081
 110    0.0016660757791797
 111    -0.0020619097668926
 112    -0.0012624757890435
 113    0.00019636315721026
 114    -0.0012996161379349
 115    0.0029865568962512
 116    -0.0024821931500574
 117    -0.013224622038658
 118    0.0078049896792661
 119     0.021909884184449
 120    -0.022173268679153
 121      0.01316382226955
 122     0.036766210093706
 123    -0.037083749177512
 124     0.023048693870041
 125     0.062055343883724
 126    -0.00098562046664234
 127    0.0012679829950445
 128    0.0015435474905825
 129    -0.001681250673586
 130    -0.00081439256277442
 131    0.00020797761918738
 132    -0.0014005925397503
 133    0.0025770014297739
 134    0.0013041416957347
 135    0.0015270723550465
 136    -0.00079109636089106
 137    -0.00072566539801051
 138     0.002811539360081
 139    -0.0013500908250331
 140    -0.0012528068109669
 141    0.0036601316852137
 142    -0.0030489887456724
 143    -0.0028523390517819
 144    9.4914684608395e-05
 145    0.00028892297013472
 146    -5.8819752216935e-05
 147    -0.00016004659583289
 148    0.00023123734137412
 149    -8.8295918548873e-05
 150    0.00058501490899402
 151    -0.00056678938509025
 152    -0.0030708050557365
 153    -0.0011028000750849
 154    -5.3148788672028e-05
 155    0.00065468422774902
 156    -0.0019243075453075
 157    -0.00012733801693339
 158    0.0011605991143951
 159    -0.0036622536331313
 160    0.00078425923742178
 161    0.00048432299070211
 162    -3.0518436794019e-05
 163    -0.00014233569851944
 164    4.8285051676062e-05
 165    7.611420799318e-05
 166    3.7604663086343e-05
 167    8.837795597327e-05
 168    -0.00059493634185777
 169    0.0012236261214156
 170    -0.00027972758969903
 171    0.00072359084466947
 172    0.00035206034215935
 173    0.00076124892060561
 174    0.0013139948130351
 175    0.00062594608466355
 176    0.0012531996110824
 177    0.0018744019310706
 178    0.00082332199756471
 179    0.0025645988759299
 180    0.00010076775114038
 181    -0.00012607423899574
 182    -1.3453687063306e-05
 183    -9.6116551912295e-05
 184    -0.00017660822066614
 Sym= A
 Ene=               2
 Spin= Alpha
 Occup=    1.00000
   1    -0.00082880444739331
   2    0.0024689338258923
   3    -0.011005769782131
   4     0.020899117630968
   5    -0.0072785315678796
   6    -5.7066109835418e-05
   7    0.0065035082545055
   8    0.0032877968131669
   9    0.00015493145839517
  10    -0.019979756444858
  11     -0.01003234917113
  12    0.0012624550295867
  13     0.026948103720129
  14     0.015071204119698
  15      0.52521590576842
  16      0.15540735064755
  17      0.46427830443481
  18      0.13036617683645
  19      0.48797206788355
  20      0.14123391905613
  21     0.041100394859421
  22      0.12480651825007
  23     0.034523859451832
  24      0.12990632051516
  25    0.00060303443467581
  26    0.0013251790505527
  27    0.00055994207737285
  28    0.00066094746141319
  29    0.0016819660140805
  30    9.1156406310356e-05
  31     0.001467786023707
  32    -0.002137208186455
  33    -0.0054946786187764
  34    -0.0026155617730344
  35    -0.0083732579978937
  36     0.065059833058395
  37     0.036482529071843
  38    -0.010290520658102
  39     0.070755529119281
  40     0.040159802922212
  41    0.00054009489826336
  42    -0.0012256703020674
  43    0.00099016917114964
  44    0.00049687887809423
  45    -0.0016934325878559
  46    -0.00050754115868058
  47    0.0015120002660946
  48    -0.0067768315313399
  49    0.0075553364666908
  50    -0.0018763641004314
  51    0.0022169463274093
  52    0.0022088062122062
  53    0.00047974034730615
  54    -0.0070862191474979
  55    -0.0070140227543809
  56    -0.0015243021176666
  57    0.0049958729232546
  58     0.012891104778146
  59     0.006257399121042
  60    -0.00079049316985705
  61    -0.00048594413107416
  62    3.5014885739851e-05
  63    0.0013412739936145
  64    0.00049176979351114
  65    -0.000966242521188
  66    0.0016474270318728
  67    -0.00098638030172576
  68    0.0003585537683898
  69    0.0040798088981991
  70    -1.5780623583598e-05
  71    -0.00030867315827146
  72    -0.00013273570079622
  73    0.00010411535102686
  74    -0.00032417491237813
  75    0.00024951275588729
  76    0.00061212855694152
  77    8.420921981228e-05
  78    -0.00054953888208623
  79    0.00021572297869219
  80    0.00092587759415927
  81    0.0031613613163897
  82      -0.0228642918759
  83    -0.013958674528266
  84    0.0053154543776942
  85    -0.038564534872485
  86      -0.0236727181834
  87    0.0089676388012997
  88    -0.065346352720783
  89    -0.039877291413575
  90    -0.0025879672890666
  91    0.00044591942249072
  92    -0.0013223704316714
  93    -0.0014300128104282
  94    -0.00010428655934273
  95    -0.00042572295050347
  96    0.0028425954870085
  97    -0.0052772875470559
  98    0.0032617929652815
  99     0.016213950679263
 100    -0.0098616067061897
 101     0.013861589687377
 102     0.027525631290924
 103    -0.016558387281123
 104     0.023302539410111
 105     0.043855316382936
 106    -0.028274769066333
 107     0.040200025284647
 108    -0.0024331895240439
 109    -3.0365600330132e-05
 110    -1.4305062444356e-06
 111    0.00089925806513317
 112    -0.0012591087849725
 113    0.0010954250488589
 114    -0.0071815591244997
 115    0.0095203085496795
 116    0.0034209009901841
 117    -0.015796503736308
 118    -0.0090372439290337
 119    -0.0077823306888408
 120    -0.026672716231114
 121    -0.015510234905283
 122    -0.013040664067831
 123    -0.044051843058382
 124    -0.025050625509917
 125    -0.022589245580669
 126    0.00096872268544719
 127    0.00022175421366255
 128    -0.0011638791234204
 129    -0.00083009551400995
 130    -0.001203984535628
 131    -0.00027459077798133
 132    0.0018109652788899
 133    -0.0023666117771245
 134    -0.0049017739544923
 135    -0.0024046892744262
 136    -6.2105084525809e-05
 137    0.0018840058870857
 138    -0.0042070521797805
 139    -0.00016342469834466
 140    0.0031818571040969
 141    -0.0064789704871455
 142    0.0010146411586176
 143    0.0076483982681279
 144    -2.5573452696969e-05
 145    -0.00048603263690502
 146    -4.3849478353138e-05
 147    0.00026606217343296
 148    -7.549813100915e-05
 149    -8.7560714529908e-05
 150    0.0005844264771741
 151    -0.0010977193579902
 152    -6.7039626655822e-05
 153    -0.00085521537574965
 154    -0.00046714433263088
 155    -0.00074896806501001
 156    -0.0015239401581248
 157    -0.00068838655985108
 158    -0.0011926850096925
 159    -0.0023427359334796
 160    -0.0022342173667012
 161    -0.0026770619923186
 162    -0.00016221188823557
 163    0.00012065271331542
 164    -1.8516178248858e-05
 165    0.00011786086754066
 166    1.4447153768005e-05
 167    0.00027811362177169
 168    -0.0018499498625018
 169    0.0027447181277853
 170    0.0042383759387166
 171    0.0030485336187583
 172    0.00088036383250273
 173    -0.00081269762440244
 174    0.0054578577991493
 175    0.0014973168042265
 176    -0.0014611398435484
 177    0.0078206701390256
 178    0.0045395944233524
 179    -0.0013820539232267
 180    0.00010528883869129
 181    0.00021293415274188
 182    0.00017065620731165
 183    -0.0004888092809009
 184    -0.00015729938457764
 Sym= A
 Ene=               3
 Spin= Alpha
 Occup=    1.00000
   1    -0.00061017103810678
   2    0.0018165142471133
   3    -0.0081191498145189
   4     0.010141916402929
   5    0.0016865701694249
   6    -0.0023207704579748
   7    -0.0045109804076857
   8     0.004229606467202
   9    0.0071972608263886
  10      0.01427241351248
  11    -0.013471651632335
  12    -0.0067913693300939
  13    -0.0087465041250841
  14    0.0070697258136311
  15     -0.55667956303346
  16     -0.37379212398538
  17      0.30180801449839
  18     -0.11310957798074
  19      0.46341143816222
  20      -0.1459410624412
  21    -0.096634011406332
  22     0.078941198987393
  23    -0.030894226613173
  24      0.11977022345258
  25    -0.00020426627292844
  26    -0.0018040092501445
  27    -4.6231000645961e-05
  28    -0.0015669711102077
  29    0.0013139675129734
  30    0.0002063264654861
  31    0.0018279904797809
  32    0.0047820927682098
  33     0.011493666813399
  34    0.0090438605649954
  35     0.022246147801334
  36     0.068856398265848
  37    -0.062711994213072
  38     0.027867298629806
  39     0.076215762613875
  40    -0.068916588912505
  41    -0.00057081446813372
  42    0.0020669934867692
  43    0.00098416973543149
  44    -0.0011137397205126
  45    -0.001835615398233
  46    0.00097988625478456
  47    -0.0029166632136624
  48     0.013103127483889
  49    -0.012879983065899
  50    0.0042508888877119
  51    -0.0044367851270512
  52    0.0025296059346847
  53    -0.0009907696560332
  54     0.014246652232866
  55    -0.0080334760712242
  56    0.0031574585126547
  57    -0.012228863226049
  58      0.01418859579884
  59    -0.012728213736671
  60     0.001513155313057
  61    0.0011223212226173
  62    -0.00017107835822572
  63    -0.0030511150996557
  64    0.00054546285653489
  65    0.0018333303969482
  66    -0.0028053323097525
  67    -0.0014012429496813
  68    -0.001687652195516
  69    0.0042809236855738
  70    1.3496738828687e-05
  71    0.00055825225267491
  72    -6.019663895709e-05
  73    -7.4597622645677e-06
  74    -0.00034672527224951
  75    -0.00045405697906241
  76    0.00064494449306099
  77    0.0036723962644614
  78    -0.024062711441633
  79     0.029992913758534
  80     0.030036261058376
  81     0.010518768528832
  82     0.027793762481424
  83    -0.029922355073603
  84     0.017575457184664
  85      0.04730185440235
  86     -0.05134167516773
  87     0.029845196138771
  88     0.082886384391421
  89     -0.09148759984231
  90    0.0011810780468069
  91    0.0018614890132838
  92    -3.3454523393948e-05
  93    2.8015621655369e-05
  94    -0.0004358374554652
  95    -0.00049310017509702
  96    0.0032011606510949
  97    -0.0035246973771938
  98    -0.0056908360890525
  99    0.00070530565636397
 100    0.0051537957764582
 101    -0.011292770498387
 102    0.0012385275337419
 103    0.0088873697795719
 104    -0.019245113490413
 105    0.0027755350500791
 106     0.013441947420495
 107    -0.032169373572894
 108    0.00081828231352651
 109    -0.00044762229533585
 110    -0.00033151750235414
 111    0.00037183155881888
 112    0.0015667708619549
 113    -0.0028921038154346
 114     0.018827088298996
 115    -0.022679144122349
 116    -0.025488614546691
 117    -0.0004605035376121
 118     0.029162535796995
 119    -0.021811878317577
 120    -0.00053588333664728
 121     0.049224563025138
 122    -0.036485033641338
 123    2.9971246701336e-05
 124     0.087891469116958
 125    -0.063830957661012
 126    0.00072624187985915
 127    -0.00027361403430072
 128    -0.00017824660370885
 129    0.0010656653885726
 130    -0.0019644132258643
 131    0.00014241781036805
 132    -0.0009449170592022
 133    0.0013046519517692
 134    0.0022590342637857
 135    0.00037588233525937
 136    -0.0014526784074218
 137    -0.0003832900687033
 138    0.00064225676250481
 139    -0.0022806259148381
 140    -0.00066465911630063
 141     0.001847307595065
 142    -0.0060991074392409
 143    -0.0017292232253652
 144    2.6244391728137e-05
 145    0.00029901500444344
 146    -0.00013395234052065
 147    -3.8144399556619e-05
 148    0.00028873149974639
 149    -0.00019969898697477
 150    0.0013193427487633
 151    -0.0012651383657522
 152    -0.0068287282358751
 153    -0.0026427166570038
 154    -0.00049992956121077
 155    0.00085138332080815
 156    -0.0046266475405611
 157    -0.00090033091009462
 158    0.0016234394810728
 159    -0.0084584363706097
 160      0.00019236286067
 161    -0.00098321754469314
 162    -0.00011936808226387
 163    -0.00029481293410299
 164    0.00012301613787861
 165    0.00015151722460882
 166    0.00016718104723805
 167    0.00037346649263885
 168    -0.002491872455297
 169    0.0042323074213234
 170    0.0027136975364465
 171    0.0032645383279986
 172    0.0014249708075566
 173    0.00093213282261992
 174    0.0057620738651063
 175    0.0025101213613953
 176    0.0013994120567513
 177    0.0092605151081343
 178    0.0049117185008612
 179     0.004306266472453
 180    0.00035824881190258
 181    -9.3882279728257e-05
 182    9.0745162291077e-05
 183    -0.00045355521633931