[Molden Format]
made by pyscf v[2.1.1]
[Atoms] (AU)
Fe   1   26     3.17068844873907     0.00098706064664     0.12237737881307
O   2   8     0.00000000000000     0.00000000000000    -0.89004350580623
Fe   3   26    -3.17068844873907    -0.00098706064664     0.12237737881307
Cl   4   17     3.53383895113107    -2.07485195383062     3.76228752659000
Cl   5   17     5.54152580550813    -1.85590924879884    -2.78672786652360
Cl   6   17     4.48169216485503     3.92976278472880    -0.95330240907949
Cl   7   17    -3.53383895113107     2.07485195383062     3.76228752659000
Cl   8   17    -5.54152580550813     1.85590924879884    -2.78672786652360
Cl   9   17    -4.48169216485503    -3.92976278472880    -0.95330240907949
[GTO]
1 0
 s    6 1.00
          60923.640643  0.0017552243692958
          9147.8893982   0.013449023284001
          2081.3505927   0.066678874640978
          587.55977067    0.23176348548844
           191.0904399    0.46945550248188
          65.732730112     0.3596824938678
 s    3 1.00
          127.25891928   -0.10723431835929
           14.83091301    0.62971616328466
          6.0653307408    0.44472317896179
 s    3 1.00
           10.44994371   -0.21694289195548
          1.7245228003    0.69457867408393
         0.71772177325    0.43298308896347
 s    1 1.00
        0.091449828308                   1
 s    1 1.00
        0.033706691021                   1
 p    5 1.00
          773.43750995  0.0091440529992506
          182.15149714   0.067887577136571
          57.547272758    0.26167978878504
          20.614988935    0.51088040113251
           7.634855789    0.33235475570224
 p    3 1.00
           3.871932799    0.33193859098144
          1.4924724132     0.5553666555499
         0.56061284958    0.23106034201617
 p    1 1.00
              0.134915                   1
 d    4 1.00
          38.968133419   0.033335938558743
          10.800067078    0.17766212505983
          3.6136457999      0.441281781625
          1.2129967888    0.57089200490673
 d    1 1.00
          0.3652439317                   1
 f    1 1.00
                 1.598                   1

2 0
 s    5 1.00
          2266.1767785  -0.0053893503921743
          340.87010191   -0.04023472138896
          77.363135167   -0.18008184205526
           21.47964494   -0.46828857657651
          6.6589433124   -0.44692617160187
 s    1 1.00
         0.80975975668                   1
 s    1 1.00
         0.25530772234                   1
 p    3 1.00
          17.721504317   0.062630248763161
           3.863550544    0.33331138482352
          1.0480920883    0.74148638308122
 p    1 1.00
         0.27641544411                   1
 d    1 1.00
                   1.2                   1

3 0
 s    6 1.00
          60923.640643  0.0017552243692958
          9147.8893982   0.013449023284001
          2081.3505927   0.066678874640978
          587.55977067    0.23176348548844
           191.0904399    0.46945550248188
          65.732730112     0.3596824938678
 s    3 1.00
          127.25891928   -0.10723431835929
           14.83091301    0.62971616328466
          6.0653307408    0.44472317896179
 s    3 1.00
           10.44994371   -0.21694289195548
          1.7245228003    0.69457867408393
         0.71772177325    0.43298308896347
 s    1 1.00
        0.091449828308                   1
 s    1 1.00
        0.033706691021                   1
 p    5 1.00
          773.43750995  0.0091440529992506
          182.15149714   0.067887577136571
          57.547272758    0.26167978878504
          20.614988935    0.51088040113251
           7.634855789    0.33235475570224
 p    3 1.00
           3.871932799    0.33193859098144
          1.4924724132     0.5553666555499
         0.56061284958    0.23106034201617
 p    1 1.00
              0.134915                   1
 d    4 1.00
          38.968133419   0.033335938558743
          10.800067078    0.17766212505983
          3.6136457999      0.441281781625
          1.2129967888    0.57089200490673
 d    1 1.00
          0.3652439317                   1
 f    1 1.00
                 1.598                   1

4 0
 s    5 1.00
          10449.827566  0.0054265953789407
          1571.7365221   0.040626378128836
          357.12065523    0.18359747852877
          100.25185935    0.47438948768198
          30.812727554    0.43735181104122
 s    3 1.00
          51.923789434  -0.092754154848099
          5.7045760975    0.56380825544207
          2.3508376809    0.50367044629712
 s    1 1.00
         0.44605124672                   1
 s    1 1.00
          0.1684885619                   1
 p    5 1.00
          307.66790569  -0.0088797025588865
          72.102015515  -0.064284071721237
          22.532680262   -0.24288739736006
          7.8991765444   -0.48340836369878
          2.8767268321   -0.38952563875509
 p    1 1.00
         0.77459363955                   1
 p    1 1.00
         0.21037699698                   1
 d    1 1.00
                  0.65                   1

5 0
 s    5 1.00
          10449.827566  0.0054265953789407
          1571.7365221   0.040626378128836
          357.12065523    0.18359747852877
          100.25185935    0.47438948768198
          30.812727554    0.43735181104122
 s    3 1.00
          51.923789434  -0.092754154848099
          5.7045760975    0.56380825544207
          2.3508376809    0.50367044629712
 s    1 1.00
         0.44605124672                   1
 s    1 1.00
          0.1684885619                   1
 p    5 1.00
          307.66790569  -0.0088797025588865
          72.102015515  -0.064284071721237
          22.532680262   -0.24288739736006
          7.8991765444   -0.48340836369878
          2.8767268321   -0.38952563875509
 p    1 1.00
         0.77459363955                   1
 p    1 1.00
         0.21037699698                   1
 d    1 1.00
                  0.65                   1

6 0
 s    5 1.00
          10449.827566  0.0054265953789407
          1571.7365221   0.040626378128836
          357.12065523    0.18359747852877
          100.25185935    0.47438948768198
          30.812727554    0.43735181104122
 s    3 1.00
          51.923789434  -0.092754154848099
          5.7045760975    0.56380825544207
          2.3508376809    0.50367044629712
 s    1 1.00
         0.44605124672                   1
 s    1 1.00
          0.1684885619                   1
 p    5 1.00
          307.66790569  -0.0088797025588865
          72.102015515  -0.064284071721237
          22.532680262   -0.24288739736006
          7.8991765444   -0.48340836369878
          2.8767268321   -0.38952563875509
 p    1 1.00
         0.77459363955                   1
 p    1 1.00
         0.21037699698                   1
 d    1 1.00
                  0.65                   1

7 0
 s    5 1.00
          10449.827566  0.0054265953789407
          1571.7365221   0.040626378128836
          357.12065523    0.18359747852877
          100.25185935    0.47438948768198
          30.812727554    0.43735181104122
 s    3 1.00
          51.923789434  -0.092754154848099
          5.7045760975    0.56380825544207
          2.3508376809    0.50367044629712
 s    1 1.00
         0.44605124672                   1
 s    1 1.00
          0.1684885619                   1
 p    5 1.00
          307.66790569  -0.0088797025588865
          72.102015515  -0.064284071721237
          22.532680262   -0.24288739736006
          7.8991765444   -0.48340836369878
          2.8767268321   -0.38952563875509
 p    1 1.00
         0.77459363955                   1
 p    1 1.00
         0.21037699698                   1
 d    1 1.00
                  0.65                   1

8 0
 s    5 1.00
          10449.827566  0.0054265953789407
          1571.7365221   0.040626378128836
          357.12065523    0.18359747852877
          100.25185935    0.47438948768198
          30.812727554    0.43735181104122
 s    3 1.00
          51.923789434  -0.092754154848099
          5.7045760975    0.56380825544207
          2.3508376809    0.50367044629712
 s    1 1.00
         0.44605124672                   1
 s    1 1.00
          0.1684885619                   1
 p    5 1.00
          307.66790569  -0.0088797025588865
          72.102015515  -0.064284071721237
          22.532680262   -0.24288739736006
          7.8991765444   -0.48340836369878
          2.8767268321   -0.38952563875509
 p    1 1.00
         0.77459363955                   1
 p    1 1.00
         0.21037699698                   1
 d    1 1.00
                  0.65                   1

9 0
 s    5 1.00
          10449.827566  0.0054265953789407
          1571.7365221   0.040626378128836
          357.12065523    0.18359747852877
          100.25185935    0.47438948768198
          30.812727554    0.43735181104122
 s    3 1.00
          51.923789434  -0.092754154848099
          5.7045760975    0.56380825544207
          2.3508376809    0.50367044629712
 s    1 1.00
         0.44605124672                   1
 s    1 1.00
          0.1684885619                   1
 p    5 1.00
          307.66790569  -0.0088797025588865
          72.102015515  -0.064284071721237
          22.532680262   -0.24288739736006
          7.8991765444   -0.48340836369878
          2.8767268321   -0.38952563875509
 p    1 1.00
         0.77459363955                   1
 p    1 1.00
         0.21037699698                   1
 d    1 1.00
                  0.65                   1

[5d]
[7f]
[9g]

[MO]
 Sym= A
 Ene=               0
 Spin= Alpha
 Occup=    1.00000
   1     0.032121750651682
   2    -0.098011627370563
   3       0.4251542349012
   4     0.033744407705365
   5    -0.045518360489436
   6      0.15287504412187
   7    8.0320239423887e-05
   8     0.060809948210529
   9     -0.51348153118266
  10    -0.00025037763416298
  11     -0.20157781531528
  12    0.0092071060127242
  13    0.0059800502821163
  14     -0.01368998299781
  15     0.017416942687333
  16    -0.033396554244019
  17    -0.001622665096677
  18    -0.046887767948462
  19    0.0013755751540364
  20    0.0077742096282534
  21    -0.015922390850954
  22    6.8326591700336e-05
  23    -0.023370547934225
  24    0.0011003075843793
  25    -0.00046068420345392
  26    -0.00021799874756551
  27    -0.00030597619667187
  28    0.00096068501072851
  29    5.7525345529253e-05
  30    0.00065246807816126
  31    -0.0002362674112112
  32    -5.6046317077542e-17
  33    -1.5381225509002e-16
  34    -1.1275430655342e-16
  35    -0.079557942023523
  36    -0.001559936924422
  37    -6.9513631163415e-18
  38    -0.081056528638534
  39    -0.0023023227267844
  40    -8.2830436797433e-18
  41    1.4374527629408e-18
  42    -0.002305064271901
  43    -7.5431989758684e-05
  44    -3.490999094689e-18
  45    2.1739644083933e-20
  46    -0.032121750651681
  47     0.098011627370563
  48      -0.4251542349012
  49    -0.033744407705365
  50     0.045518360489436
  51      0.15287504412187
  52    8.0320239423881e-05
  53    -0.060809948210529
  54     -0.51348153118266
  55    -0.00025037763416296
  56      0.20157781531528
  57    0.0092071060127242
  58    0.0059800502821163
  59      0.01368998299781
  60    -0.017416942687333
  61    -0.033396554244019
  62    -0.001622665096677
  63     0.046887767948462
  64    -0.0013755751540364
  65    -0.0077742096282534
  66    -0.015922390850954
  67    6.8326591700339e-05
  68     0.023370547934225
  69    -0.0011003075843793
  70    0.00046068420345392
  71    -0.00021799874756551
  72    -0.00030597619667187
  73    -0.00096068501072851
  74    -5.7525345529253e-05
  75    0.00065246807816126
  76    -0.0002362674112112
  77    -0.001254373544044
  78     0.010623131575119
  79    -0.039257230293032
  80    -0.013391520330377
  81    -0.021450992387458
  82    0.00083006037902756
  83    -0.010990946377274
  84    -0.036233685724262
  85    -0.0027791462771906
  86    -0.011333468623168
  87    -0.054274869095869
  88    -0.0028941212115184
  89    -0.019418838923903
  90    0.00082964099441044
  91    0.0019171594316498
  92    -4.5115369117533e-05
  93    -2.7271236747715e-05
  94    -0.0012343576556134
  95    0.0008316291668057
  96    -0.0026308832239149
  97    -0.020963277087173
  98    -0.010544089313724
  99    -0.045643016497933
 100    0.0070524061170162
 101    -0.00035296704226195
 102    -0.073048954235218
 103      0.00858228470072
 104    -0.0063828619900163
 105     -0.10911993933203
 106    0.0089037079766082
 107    -0.012890357114126
 108    -0.0013942936792737
 109    -0.0033459433884342
 110    0.00048799274042955
 111    0.0012244794313531
 112    -0.0022508243238618
 113    0.0017190019225935
 114    -0.0085852364410108
 115    -0.010758314195778
 116    -0.0047649393670521
 117    -0.040459791455531
 118    -0.025113930044386
 119    -0.006184060846211
 120    -0.066994363598733
 121    -0.035827270431438
 122    -0.012774432575229
 123     -0.10119200622769
 124    -0.049639321727028
 125     -0.01926755268692
 126    -0.0016767784734993
 127    -0.0013902306230812
 128    -0.00051299278626042
 129    -0.0021097462991529
 130     0.003618082774852
 131    0.0012543735440441
 132    -0.010623131575119
 133     0.039257230293032
 134     0.013391520330377
 135    -0.021450992387458
 136    0.00083006037902756
 137     0.010990946377274
 138    -0.036233685724262
 139    -0.0027791462771906
 140     0.011333468623168
 141    -0.054274869095869
 142    -0.0028941212115184
 143     0.019418838923903
 144    -0.00082964099441044
 145    0.0019171594316498
 146    -4.5115369117533e-05
 147    2.7271236747715e-05
 148    0.0012343576556134
 149    -0.0008316291668057
 150    0.0026308832239149
 151     0.020963277087173
 152     0.010544089313724
 153    -0.045643016497933
 154    0.0070524061170161
 155    0.00035296704226198
 156    -0.073048954235218
 157    0.0085822847007199
 158    0.0063828619900164
 159     -0.10911993933203
 160    0.0089037079766082
 161     0.012890357114126
 162    0.0013942936792737
 163    -0.0033459433884342
 164    0.00048799274042955
 165    -0.0012244794313531
 166    0.0022508243238618
 167    -0.0017190019225935
 168    0.0085852364410107
 169     0.010758314195778
 170    0.0047649393670521
 171    -0.040459791455532
 172    -0.025113930044386
 173     0.006184060846211
 174    -0.066994363598733
 175    -0.035827270431438
 176     0.012774432575229
 177     -0.10119200622769
 178    -0.049639321727028
 179      0.01926755268692
 180    0.0016767784734993
 181    -0.0013902306230812
 182    -0.00051299278626042
 183    0.0021097462991529
 184    -0.003618082774852
 Sym= A
 Ene=               1
 Spin= Alpha
 Occup=    1.00000
   1    -0.0027962691051197
   2    0.0080184418402336
   3    -0.038895362989771
   4    0.0094533157838946
   5    0.0028145559975575
   6    -0.0095478049244583
   7    -0.010596592925015
   8     0.012092199764101
   9     0.031297397286501
  10     0.033799422318143
  11    -0.036892374832088
  12    -0.023038807202413
  13     0.069107269682494
  14     0.038861899450137
  15    -0.034094551990269
  16     0.042267673762371
  17    -0.070675611197969
  18    -0.049857568688422
  19      0.05901310362639
  20    -0.022069228774268
  21     0.028341861845069
  22    -0.045844766308044
  23     -0.03251273064606
  24     0.039437582336854
  25    -7.6680119272676e-05
  26    -0.0010754373240704
  27    -0.00024664257662005
  28    0.00075471169469049
  29    -0.0022201198788199
  30    -0.00094565193483741
  31    -0.00014888326896143
  32    -9.4488593038082e-17
  33    -2.2411656867924e-16
  34    -1.86573677988e-16
  35    0.0037117558493835
  36    -0.011901108702174
  37    -9.912431874965e-17
  38    0.00095397401283819
  39    -0.021427062987457
  40    -1.0457038341957e-16
  41    7.5975253240353e-19
  42     0.000593652845397
  43    -0.00077292639656824
  44    -7.0759442023314e-18
  45    1.2861538281538e-18
  46    0.0027962691051197
  47    -0.0080184418402336
  48     0.038895362989771
  49    -0.0094533157838946
  50    -0.0028145559975575
  51    -0.0095478049244584
  52    -0.010596592925015
  53    -0.012092199764101
  54     0.031297397286501
  55     0.033799422318143
  56     0.036892374832088
  57    -0.023038807202413
  58     0.069107269682494
  59    -0.038861899450137
  60     0.034094551990269
  61      0.04226767376237
  62    -0.070675611197968
  63     0.049857568688422
  64     -0.05901310362639
  65     0.022069228774268
  66     0.028341861845069
  67    -0.045844766308044
  68      0.03251273064606
  69    -0.039437582336854
  70    7.6680119272674e-05
  71    -0.0010754373240704
  72    -0.00024664257662005
  73    -0.00075471169469048
  74    0.0022201198788198
  75    -0.00094565193483741
  76    -0.00014888326896143
  77    0.0008426076486743
  78    -0.0049065209907591
  79    0.0050510912536266
  80    -0.0019988508199278
  81     0.009031897981129
  82     -0.01380151692037
  83    -0.036527196886113
  84      0.01560480852472
  85    -0.023451441660806
  86     -0.06091382198389
  87     0.024930930057356
  88    -0.042767013303912
  89    -0.090472616582748
  90    0.0030982552158108
  91    0.00035786083993847
  92    -0.0013450293499311
  93    0.00017115169868717
  94    0.00064894555708493
  95    -0.0096895388103514
  96     0.061527817352912
  97    -0.087104639995365
  98     -0.02748959292097
  99      0.07263369638186
 100    -0.055469104347746
 101    -0.081352987457982
 102      0.12346591839293
 103    -0.093809071310212
 104     -0.13754050013275
 105      0.17361208625178
 106     -0.13777195080887
 107     -0.19517294990897
 108    -0.0060177587766757
 109     0.012108174027785
 110    -0.0087106969573805
 111    -0.0039414650021535
 112    0.0063537500531477
 113     0.009125126510399
 114    -0.057571388273076
 115     0.076404288467842
 116     0.028564668773388
 117    -0.050558951358688
 118     -0.10271285225621
 119    0.0067282181577812
 120    -0.086214347432246
 121     -0.17224947737738
 122     0.010623186528089
 123     -0.12157157004311
 124      -0.2530524205045
 125     0.010266278032441
 126    -0.0051532404560314
 127    -0.0024410512628015
 128    -0.0084984186379173
 129    -0.0086784047204149
 130    0.0084472035631537
 131    -0.00084260764867434
 132     0.004906520990759
 133    -0.0050510912536265
 134    0.0019988508199277
 135    0.0090318979811291
 136     -0.01380151692037
 137     0.036527196886113
 138      0.01560480852472
 139    -0.023451441660806
 140     0.060913821983889
 141     0.024930930057357
 142    -0.042767013303911
 143     0.090472616582747
 144    -0.0030982552158108
 145    0.00035786083993847
 146    -0.0013450293499311
 147    -0.00017115169868717
 148    -0.00064894555708493
 149    0.0096895388103514
 150    -0.061527817352912
 151     0.087104639995365
 152      0.02748959292097
 153      0.07263369638186
 154    -0.055469104347746
 155     0.081352987457982
 156      0.12346591839293
 157    -0.093809071310212
 158      0.13754050013275
 159      0.17361208625178
 160     -0.13777195080887
 161      0.19517294990897
 162    0.0060177587766757
 163     0.012108174027785
 164    -0.0087106969573804
 165    0.0039414650021535
 166    -0.0063537500531477
 167    -0.0091251265103991
 168     0.057571388273075
 169    -0.076404288467842
 170    -0.028564668773389
 171    -0.050558951358688
 172     -0.10271285225621
 173    -0.0067282181577812
 174    -0.086214347432246
 175     -0.17224947737738
 176    -0.010623186528089
 177     -0.12157157004311
 178      -0.2530524205045
 179    -0.010266278032441
 180    0.0051532404560313
 181    -0.0024410512628015
 182    -0.0084984186379173
 183    0.0086784047204149
 184    -0.0084472035631537
 Sym= A
 Ene=               2
 Spin= Alpha
 Occup=    1.00000
   1    -0.0061456215451033
   2     0.019406632988402
   3    -0.078806040893019
   4    -0.012304847598666
   5     0.004726068176245
   6    -0.048425603454974
   7     -0.01327594660492
   8    0.0015984040647412
   9      0.15913128055854
  10     0.040869046139622
  11    -0.0026835523782889
  12     0.020609333417461
  13    -0.037891816122724
  14    -0.071701251347785
  15    -6.2520665448107e-05
  16    -0.034820299768315
  17      0.08157092555863
  18     0.052705846711533
  19    -0.045314817475924
  20    -0.00079782918886025
  21    -0.023948930118617
  22      0.05359220551881
  23     0.033090188647356
  24     -0.03036591072016
  25    0.00025311308012897
  26    0.0014065475251508
  27    0.0008097341547375
  28    -0.0005236382939422
  29    0.0019931882595565
  30    -0.00023132966806879
  31    -0.00055168349104565
  32     0.045604569511404
  33      0.10927591208349
  34     0.093919114175342
  35    -4.6670619824415e-18
  36    -9.5539818353166e-17
  37     0.010720501772828
  38    -1.7405689837322e-17
  39    -1.0847832145204e-16
  40     0.022161029752171
  41    -0.0011768701514413
  42    -7.0452727094227e-20
  43    -2.0426482365263e-18
  44    0.0031701005793594
  45    -0.00086153032512381
  46    -0.0061456215451033
  47     0.019406632988402
  48    -0.078806040893019
  49    -0.012304847598666
  50     0.004726068176245
  51     0.048425603454974
  52      0.01327594660492
  53    0.0015984040647411
  54     -0.15913128055854
  55    -0.040869046139621
  56    -0.0026835523782888
  57    -0.020609333417462
  58     0.037891816122724
  59    -0.071701251347785
  60    -6.2520665448166e-05
  61     0.034820299768315
  62     -0.08157092555863
  63     0.052705846711533
  64    -0.045314817475924
  65    -0.0007978291888603
  66     0.023948930118617
  67    -0.053592205518811
  68     0.033090188647356
  69     -0.03036591072016
  70    0.00025311308012897
  71    -0.0014065475251508
  72    -0.0008097341547375
  73    -0.0005236382939422
  74    0.0019931882595565
  75    0.00023132966806879
  76    0.00055168349104564
  77    -0.0059040688284775
  78     0.036123205080359
  79    -0.039824990691967
  80    -0.0082861861080183
  81     0.031008784358162
  82    -0.013821949151783
  83     0.086062994487212
  84     0.052562260455001
  85    -0.021936557187449
  86      0.14278997878418
  87     0.076279152788692
  88    -0.021516010689679
  89      0.20502329314949
  90    -0.0079016758479837
  91    -0.0033817607706204
  92    0.0078380552771907
  93    0.0016433629350245
  94    0.0013983104534518
  95     0.010452975010245
  96    -0.067282387986492
  97       0.1030836823799
  98     0.031712649928839
  99    -0.066205047901996
 100     0.052970620562634
 101     0.078743648576222
 102     -0.11440859369528
 103     0.091257923280822
 104      0.13481881846263
 105     -0.15755303919599
 106      0.12890861021985
 107      0.19214621919364
 108    0.0056501673841383
 109    -0.011502594268861
 110    0.0090045248241053
 111    0.0032410731277886
 112    -0.0062914846610027
 113    -0.0034195966549688
 114     0.020374941136513
 115    -0.018220009158058
 116    -0.0059503094536874
 117     0.021720000508053
 118     0.069017319126551
 119    -0.0024006659746531
 120     0.035677613538439
 121      0.11272469156603
 122    -0.0033530411255778
 123     0.049198327953878
 124      0.16960024048344
 125    0.0020343908650923
 126    0.0028909974610242
 127    0.0010383988582279
 128    0.0051682162551309
 129    0.0047321654371561
 130    -0.005086510524639
 131    -0.0059040688284775
 132     0.036123205080359
 133    -0.039824990691967
 134    -0.0082861861080183
 135    -0.031008784358162
 136     0.013821949151784
 137     0.086062994487212
 138    -0.052562260455001
 139     0.021936557187449
 140      0.14278997878418
 141    -0.076279152788691
 142      0.02151601068968
 143      0.20502329314949
 144    -0.0079016758479837
 145    0.0033817607706204
 146    -0.0078380552771908
 147    0.0016433629350245
 148    0.0013983104534518
 149     0.010452975010245
 150    -0.067282387986492
 151       0.1030836823799
 152     0.031712649928839
 153     0.066205047901996
 154    -0.052970620562634
 155     0.078743648576223
 156      0.11440859369528
 157    -0.091257923280822
 158      0.13481881846263
 159      0.15755303919599
 160     -0.12890861021985
 161      0.19214621919364
 162    0.0056501673841384
 163     0.011502594268861
 164    -0.0090045248241053
 165    0.0032410731277886
 166    -0.0062914846610027
 167    -0.0034195966549688
 168     0.020374941136513
 169    -0.018220009158059
 170    -0.0059503094536875
 171    -0.021720000508053
 172    -0.069017319126551
 173    -0.002400665974653
 174     -0.03567761353844
 175     -0.11272469156603
 176    -0.0033530411255776
 177    -0.049198327953879
 178     -0.16960024048344
 179    0.0020343908650926
 180    0.0028909974610242
 181    -0.001038398858228
 182    -0.0051682162551309
 183    0.0047321654371561
 184    -0.005086510524639
 Sym= A
 Ene=               3
 Spin= Alpha
 Occup=    1.00000
   1    -0.0087715558039066
   2     0.027684654791691
   3     -0.11239934283689
   4    -0.026117314211745
   5    0.0075149066785442
   6    -0.081359484580146
   7     0.021077728471456
   8     0.024805969407451
   9      0.26368600289231
  10     -0.06547419559057
  11    -0.073654742543062
  12    0.0036610530482802
  13     0.060077779324585
  14    -0.036120512433424
  15    -0.072389159999865
  16     0.029572507402027
  17    -0.0058720757888099
  18    -0.0047815425103353
  19     0.034423712165358
  20    -0.047930180821865
  21     0.019058147602934
  22    -0.001360701675329
  23    -0.0077969584699319
  24     0.023204376301675
  25    -3.9797078059478e-05
  26    -9.5542170273546e-05
  27    0.00079208331892878
  28    0.00025780766176843
  29    -0.00083266212838132
  30    -0.0023163571250492
  31    -0.00020681847362155
  32     0.091905919438441
  33      0.20263803322975
  34      0.18042534233769
  35    -2.6315158330875e-17
  36    5.4629464371201e-17
  37     0.021381842844675
  38    -2.4138566462601e-17
  39    5.4962995601907e-17
  40     0.033072989580561
  41    -0.0026377174133933
  42    -3.7875951757961e-19
  43     4.78709599197e-19
  44    0.0048453906979714
  45    0.00086576846320945
  46    -0.0087715558039066
  47     0.027684654791691
  48     -0.11239934283689
  49    -0.026117314211745
  50    0.0075149066785442
  51     0.081359484580146
  52    -0.021077728471456
  53     0.024805969407451
  54     -0.26368600289232
  55      0.06547419559057
  56    -0.073654742543062
  57    -0.0036610530482803
  58    -0.060077779324585
  59    -0.036120512433424
  60    -0.072389159999865
  61    -0.029572507402027
  62    0.0058720757888098
  63    -0.0047815425103354
  64     0.034423712165358
  65    -0.047930180821865
  66    -0.019058147602934
  67     0.001360701675329
  68    -0.007796958469932
  69     0.023204376301675
  70    -3.9797078059479e-05
  71    9.5542170273548e-05
  72    -0.00079208331892878
  73    0.00025780766176843
  74    -0.00083266212838132
  75    0.0023163571250492
  76    0.00020681847362156
  77    -0.005800187124569
  78     0.035060114794035
  79    -0.033652400466659
  80     -0.00618311644185
  81     0.056825424914033
  82    -0.076219749684058
  83     0.049142689056128
  84     0.095669193549966
  85     -0.12599057886227
  86     0.079796659453815
  87      0.14574640100838
  88     -0.18817715840983
  89      0.10458595275047
  90    -0.0041900086717584
  91    -0.0038795996780904
  92     0.010705125539871
  93    0.0043989377257011
  94    0.0031297146654133
  95    -0.0015521014204463
  96    0.0081846326999559
  97    0.0007671117893288
  98    0.0047286044780136
  99     0.034730490347533
 100    -0.052251626313932
 101    -0.024976380317905
 102     0.055065417403401
 103    -0.085253522042522
 104    -0.038992461794011
 105     0.083301538859362
 106     -0.13646726734723
 107    -0.054060562706594
 108    -0.0014442210731487
 109    0.0052529407166547
 110    -0.0042120411871734
 111    -0.0019370893219634
 112    0.0041521906676196
 113    0.0074141627595245
 114    -0.048180234533768
 115     0.076405750413504
 116     0.028968285021638
 117    -0.0024126310396255
 118    -0.079349225141264
 119      0.02531636001346
 120    -0.005530407128945
 121     -0.13750032895919
 122      0.04238232442002
 123    -0.0017183735779141
 124     -0.19781616824748
 125     0.066537507422926
 126    -0.0032171162675239
 127    -0.0011257487486185
 128    -0.0082733054354674
 129      -0.0069227130833
 130    0.0042035134567896
 131    -0.005800187124569
 132     0.035060114794035
 133    -0.033652400466659
 134     -0.00618311644185
 135    -0.056825424914033
 136     0.076219749684058
 137     0.049142689056128
 138    -0.095669193549967
 139      0.12599057886227
 140     0.079796659453816
 141     -0.14574640100838
 142      0.18817715840983
 143      0.10458595275047
 144    -0.0041900086717585
 145    0.0038795996780904
 146    -0.010705125539871
 147    0.0043989377257011
 148    0.0031297146654133
 149    -0.0015521014204463
 150    0.0081846326999559
 151    0.00076711178932887
 152    0.0047286044780136
 153    -0.034730490347533
 154     0.052251626313932
 155    -0.024976380317905
 156    -0.055065417403401
 157     0.085253522042522
 158    -0.038992461794011
 159    -0.083301538859362
 160      0.13646726734723
 161    -0.054060562706593
 162    -0.0014442210731487
 163    -0.0052529407166547
 164    0.0042120411871734
 165    -0.0019370893219633
 166    0.0041521906676196
 167    0.0074141627595245
 168    -0.048180234533768
 169     0.076405750413504
 170     0.028968285021638
 171    0.0024126310396255
 172     0.079349225141264
 173      0.02531636001346
 174    0.0055304071289451
 175      0.13750032895919
 176     0.042382324420021
 177    0.0017183735779143
 178      0.19781616824748
 179     0.066537507422926
 180    -0.0032171162675239
 181    0.0011257487486185
 182    0.0082733054354674
 183      -0.0069227130833
 184    0.0042035134567896
 Sym= A
 Ene=               4
 Spin= Alpha
 Occup=    1.00000
   1    -0.0012624901918883
   2    0.0031544876925244
   3    -0.018978985971548