[Molden Format]
made by pyscf v[2.1.1]
[Atoms] (AU)
Fe   1   26     3.17068844873907     0.00098706064664     0.12237737881307
O   2   8     0.00000000000000     0.00000000000000    -0.89004350580623
Fe   3   26    -3.17068844873907    -0.00098706064664     0.12237737881307
Cl   4   17     3.53383895113107    -2.07485195383062     3.76228752659000
Cl   5   17     5.54152580550813    -1.85590924879884    -2.78672786652360
Cl   6   17     4.48169216485503     3.92976278472880    -0.95330240907949
Cl   7   17    -3.53383895113107     2.07485195383062     3.76228752659000
Cl   8   17    -5.54152580550813     1.85590924879884    -2.78672786652360
Cl   9   17    -4.48169216485503    -3.92976278472880    -0.95330240907949
[GTO]
1 0
 s    6 1.00
          60923.640643  0.0017552243692958
          9147.8893982   0.013449023284001
          2081.3505927   0.066678874640978
          587.55977067    0.23176348548844
           191.0904399    0.46945550248188
          65.732730112     0.3596824938678
 s    3 1.00
          127.25891928   -0.10723431835929
           14.83091301    0.62971616328466
          6.0653307408    0.44472317896179
 s    3 1.00
           10.44994371   -0.21694289195548
          1.7245228003    0.69457867408393
         0.71772177325    0.43298308896347
 s    1 1.00
        0.091449828308                   1
 s    1 1.00
        0.033706691021                   1
 p    5 1.00
          773.43750995  0.0091440529992506
          182.15149714   0.067887577136571
          57.547272758    0.26167978878504
          20.614988935    0.51088040113251
           7.634855789    0.33235475570224
 p    3 1.00
           3.871932799    0.33193859098144
          1.4924724132     0.5553666555499
         0.56061284958    0.23106034201617
 p    1 1.00
              0.134915                   1
 d    4 1.00
          38.968133419   0.033335938558743
          10.800067078    0.17766212505983
          3.6136457999      0.441281781625
          1.2129967888    0.57089200490673
 d    1 1.00
          0.3652439317                   1
 f    1 1.00
                 1.598                   1

2 0
 s    5 1.00
          2266.1767785  -0.0053893503921743
          340.87010191   -0.04023472138896
          77.363135167   -0.18008184205526
           21.47964494   -0.46828857657651
          6.6589433124   -0.44692617160187
 s    1 1.00
         0.80975975668                   1
 s    1 1.00
         0.25530772234                   1
 p    3 1.00
          17.721504317   0.062630248763161
           3.863550544    0.33331138482352
          1.0480920883    0.74148638308122
 p    1 1.00
         0.27641544411                   1
 d    1 1.00
                   1.2                   1

3 0
 s    6 1.00
          60923.640643  0.0017552243692958
          9147.8893982   0.013449023284001
          2081.3505927   0.066678874640978
          587.55977067    0.23176348548844
           191.0904399    0.46945550248188
          65.732730112     0.3596824938678
 s    3 1.00
          127.25891928   -0.10723431835929
           14.83091301    0.62971616328466
          6.0653307408    0.44472317896179
 s    3 1.00
           10.44994371   -0.21694289195548
          1.7245228003    0.69457867408393
         0.71772177325    0.43298308896347
 s    1 1.00
        0.091449828308                   1
 s    1 1.00
        0.033706691021                   1
 p    5 1.00
          773.43750995  0.0091440529992506
          182.15149714   0.067887577136571
          57.547272758    0.26167978878504
          20.614988935    0.51088040113251
           7.634855789    0.33235475570224
 p    3 1.00
           3.871932799    0.33193859098144
          1.4924724132     0.5553666555499
         0.56061284958    0.23106034201617
 p    1 1.00
              0.134915                   1
 d    4 1.00
          38.968133419   0.033335938558743
          10.800067078    0.17766212505983
          3.6136457999      0.441281781625
          1.2129967888    0.57089200490673
 d    1 1.00
          0.3652439317                   1
 f    1 1.00
                 1.598                   1

4 0
 s    5 1.00
          10449.827566  0.0054265953789407
          1571.7365221   0.040626378128836
          357.12065523    0.18359747852877
          100.25185935    0.47438948768198
          30.812727554    0.43735181104122
 s    3 1.00
          51.923789434  -0.092754154848099
          5.7045760975    0.56380825544207
          2.3508376809    0.50367044629712
 s    1 1.00
         0.44605124672                   1
 s    1 1.00
          0.1684885619                   1
 p    5 1.00
          307.66790569  -0.0088797025588865
          72.102015515  -0.064284071721237
          22.532680262   -0.24288739736006
          7.8991765444   -0.48340836369878
          2.8767268321   -0.38952563875509
 p    1 1.00
         0.77459363955                   1
 p    1 1.00
         0.21037699698                   1
 d    1 1.00
                  0.65                   1

5 0
 s    5 1.00
          10449.827566  0.0054265953789407
          1571.7365221   0.040626378128836
          357.12065523    0.18359747852877
          100.25185935    0.47438948768198
          30.812727554    0.43735181104122
 s    3 1.00
          51.923789434  -0.092754154848099
          5.7045760975    0.56380825544207
          2.3508376809    0.50367044629712
 s    1 1.00
         0.44605124672                   1
 s    1 1.00
          0.1684885619                   1
 p    5 1.00
          307.66790569  -0.0088797025588865
          72.102015515  -0.064284071721237
          22.532680262   -0.24288739736006
          7.8991765444   -0.48340836369878
          2.8767268321   -0.38952563875509
 p    1 1.00
         0.77459363955                   1
 p    1 1.00
         0.21037699698                   1
 d    1 1.00
                  0.65                   1

6 0
 s    5 1.00
          10449.827566  0.0054265953789407
          1571.7365221   0.040626378128836
          357.12065523    0.18359747852877
          100.25185935    0.47438948768198
          30.812727554    0.43735181104122
 s    3 1.00
          51.923789434  -0.092754154848099
          5.7045760975    0.56380825544207
          2.3508376809    0.50367044629712
 s    1 1.00
         0.44605124672                   1
 s    1 1.00
          0.1684885619                   1
 p    5 1.00
          307.66790569  -0.0088797025588865
          72.102015515  -0.064284071721237
          22.532680262   -0.24288739736006
          7.8991765444   -0.48340836369878
          2.8767268321   -0.38952563875509
 p    1 1.00
         0.77459363955                   1
 p    1 1.00
         0.21037699698                   1
 d    1 1.00
                  0.65                   1

7 0
 s    5 1.00
          10449.827566  0.0054265953789407
          1571.7365221   0.040626378128836
          357.12065523    0.18359747852877
          100.25185935    0.47438948768198
          30.812727554    0.43735181104122
 s    3 1.00
          51.923789434  -0.092754154848099
          5.7045760975    0.56380825544207
          2.3508376809    0.50367044629712
 s    1 1.00
         0.44605124672                   1
 s    1 1.00
          0.1684885619                   1
 p    5 1.00
          307.66790569  -0.0088797025588865
          72.102015515  -0.064284071721237
          22.532680262   -0.24288739736006
          7.8991765444   -0.48340836369878
          2.8767268321   -0.38952563875509
 p    1 1.00
         0.77459363955                   1
 p    1 1.00
         0.21037699698                   1
 d    1 1.00
                  0.65                   1

8 0
 s    5 1.00
          10449.827566  0.0054265953789407
          1571.7365221   0.040626378128836
          357.12065523    0.18359747852877
          100.25185935    0.47438948768198
          30.812727554    0.43735181104122
 s    3 1.00
          51.923789434  -0.092754154848099
          5.7045760975    0.56380825544207
          2.3508376809    0.50367044629712
 s    1 1.00
         0.44605124672                   1
 s    1 1.00
          0.1684885619                   1
 p    5 1.00
          307.66790569  -0.0088797025588865
          72.102015515  -0.064284071721237
          22.532680262   -0.24288739736006
          7.8991765444   -0.48340836369878
          2.8767268321   -0.38952563875509
 p    1 1.00
         0.77459363955                   1
 p    1 1.00
         0.21037699698                   1
 d    1 1.00
                  0.65                   1

9 0
 s    5 1.00
          10449.827566  0.0054265953789407
          1571.7365221   0.040626378128836
          357.12065523    0.18359747852877
          100.25185935    0.47438948768198
          30.812727554    0.43735181104122
 s    3 1.00
          51.923789434  -0.092754154848099
          5.7045760975    0.56380825544207
          2.3508376809    0.50367044629712
 s    1 1.00
         0.44605124672                   1
 s    1 1.00
          0.1684885619                   1
 p    5 1.00
          307.66790569  -0.0088797025588865
          72.102015515  -0.064284071721237
          22.532680262   -0.24288739736006
          7.8991765444   -0.48340836369878
          2.8767268321   -0.38952563875509
 p    1 1.00
         0.77459363955                   1
 p    1 1.00
         0.21037699698                   1
 d    1 1.00
                  0.65                   1

[5d]
[7f]
[9g]

[MO]
 Sym= A
 Ene=               0
 Spin= Alpha
 Occup=    1.00000
   1     0.014253196219246
   2    -0.033915049425967
   3      0.22532765772352
   4      0.26817782291226
   5    -0.075778916338919
   6    -0.038896012863328
   7    -0.0012689818154296
   8    -0.016489468689834
   9      0.12938552851245
  10    0.0039076623733479
  11     0.053903595599837
  12     0.063458625008952
  13    0.0010675209871043
  14     0.016676205756522
  15    0.0059460268422939
  16    -0.0081686673554956
  17    -0.016251081009942
  18    -0.0045642863834341
  19    -0.0017881732395021
  20    0.0089425269366757
  21     -0.01279638392897
  22    -0.011209717826008
  23    -0.014343023952032
  24    -0.0011533043416234
  25    0.0022377375809307
  26    0.0014559901513533
  27    -0.0026482314607776
  28    -0.0015906932222365
  29    0.00049983606053134
  30    -0.0025994688881868
  31    -0.00093827559177701
  32      0.05696939879097
  33      0.17385733191028
  34      0.14324039449305
  35      0.05430804440538
  36    -0.0010714182844661
  37     0.012369825840493
  38     0.065595529112557
  39    -0.0022091214066737
  40     0.017155997717316
  41    -0.0024233339958189
  42    0.0027055636543794
  43    -8.4854704789288e-05
  44    0.0059386098587933
  45    -6.2552837005562e-06
  46    0.0048573093583101
  47    -0.016122303578503
  48     0.059144149186066
  49    -4.012967901134e-05
  50     0.010947380513889
  51    -0.035803146331061
  52    -0.00051937946976308
  53     0.016545020647005
  54      0.11986354794941
  55    0.0016371967705189
  56    -0.054191008600432
  57     0.020411658563966
  58    -0.0023943024711623
  59    -0.016141705215106
  60    0.00017087353084547
  61    0.0052792570338646
  62    -0.00080443113184165
  63    -0.0033073268724621
  64    -0.00025753065771127
  65    -0.00087622877256749
  66    -0.0016209391993805
  67    -0.0018969505643524
  68    0.0017706658178179
  69    -6.6355129010252e-05
  70    0.00011502647270605
  71    -0.00020024340001742
  72    -0.00015334096611935
  73    -0.00021741606964969
  74    1.2564481768755e-05
  75    0.00040740013682451
  76    -4.7013372465852e-05
  77     0.013756644396726
  78    -0.095526523205928
  79      0.19737461124185
  80      0.11267152566324
  81    0.0015121698324843
  82     0.035302408265831
  83    -0.053723682965074
  84    0.00058970464385072
  85     0.073396069856299
  86     -0.11542180258002
  87    -0.0012792669953282
  88     0.099019276119823
  89     -0.15117161716891
  90     0.010917309475215
  91    0.0010590361301934
  92    -0.013769812183442
  93    -0.0042702364925833
  94    -0.00068428877058098
  95     0.013370395695658
  96    -0.093249351575514
  97      0.19667275735074
  98      0.10832361543257
  99    -0.027748528363205
 100     0.023449040104883
 101     0.045884485095607
 102    -0.062487722665682
 103     0.052936918554917
 104     0.097319106596172
 105       -0.084938284311
 106     0.063629458000348
 107      0.12769779576579
 108    0.0054392094864284
 109    -0.011811798923719
 110    0.0096365855385132
 111    0.0011296243712106
 112    -0.0070031589566199
 113     0.012766414670388
 114     -0.08888203166396
 115      0.18552266921311
 116      0.10521744430229
 117    -0.011699537251436
 118      -0.0530263386575
 119     0.024053325095395
 120    -0.027522736257364
 121     -0.11489724760341
 122     0.046616821462954
 123    -0.039166759733899
 124     -0.14857487480065
 125     0.068826266767342
 126    -0.0055807304846539
 127    -0.0022473449455643
 128    -0.0079157703564771
 129    -0.011080711344231
 130    0.0065510616302606
 131    -0.0011806311857189
 132    0.0088899270519146
 133    -0.026204561129181
 134    -0.0068777429558434
 135     0.011064943414084
 136    0.0031758337981868
 137    0.0023243671482331
 138     0.018773161156896
 139    0.0078950172039657
 140    0.0081791770828443
 141     0.030587814230622
 142    0.0085324748647243
 143    0.0077095355753681
 144    -0.00058793321890118
 145    -0.0010106306164944
 146    -0.00075770087528277
 147    0.00044658064491963
 148    -0.00067780010852032
 149    -0.0010742256140798
 150    0.0082619888655788
 151    -0.022706068311326
 152     -0.01985623793759
 153    0.0097604985801867
 154    0.00054788701106136
 155    -0.0051338502042552
 156     0.014087943570371
 157     0.002903298833924
 158    -0.012051426429633
 159     0.019992080209865
 160    0.0055667521393444
 161    -0.018031581906153
 162    -0.00074701499080839
 163    -0.00025795128701069
 164    0.00079739380376634
 165    0.00022595686279398
 166    0.00017024231796591
 167    -0.00078912347125102
 168    0.0063337830511035
 169    -0.020048040647797
 170    -0.014824069025132
 171     0.010896071283068
 172    -0.00017446255479501
 173    -0.0045553147508261
 174     0.017345284056958
 175    -0.0042896313779964
 176    -0.0090338998078205
 177     0.026755370652817
 178    -0.0071523543140477
 179    -0.012436965416689
 180    9.8914182182021e-05
 181    0.00023277041088352
 182    -0.00054003180102798
 183    0.00069224332394157
 184    0.00039699700705308
 Sym= A
 Ene=               1
 Spin= Alpha
 Occup=    1.00000
   1    0.0012624744301207
   2    -0.0037551393587949
   3     0.016795124211713
   4    -0.031469241005757
   5     0.013929159754868
   6    0.00067801989819247
   7    0.0014776969243764
   8    -0.0048082400533791
   9    -0.0021473194318854
  10    -0.0046677566308194
  11     0.014936499479727
  12    0.0023346540059077
  13    0.0057445578952504
  14    -0.021809710771231
  15      0.20129517106665
  16     -0.47894349029448
  17     -0.48273038468827
  18       0.4335708079676
  19      0.28034089306657
  20     0.054083637159309
  21        -0.12836789478
  22     -0.13067659564536
  23       0.1176535044846
  24     0.075327869636359
  25    0.0010658442475069
  26    -0.0010670254540592
  27    -0.00098054201325081
  28    -0.00025921590584619
  29    -0.00029218080058195
  30    0.00088712756817916
  31    0.00057294546750062
  32    0.0018812243920042
  33     0.005096782489896
  34    0.0025537362739747
  35    0.0086483864573961
  36     0.014399737334498
  37    -0.049584912401235
  38    0.0094574936068565
  39     0.014021458953779
  40     -0.04821957746561
  41    -0.0002048631690547
  42    0.0012000329439868
  43    -0.00019746568071886
  44    -0.00011826104500723
  45    -0.00019572921819545
  46    0.00052574718285204
  47    -0.0015699611397402
  48    0.0070002761516786
  49    -0.007446913363763
  50      0.00134088200595
  51    -0.0024284752523028
  52    0.00052538474187849
  53    -0.00083763859105763
  54    0.0077508893046565
  55    -0.001672050522307
  56    0.0026746112166343
  57    -0.0067288818571244
  58    0.0030768697790532
  59    -0.0085391237510736
  60    0.0012752476237244
  61    -0.00071361451318004
  62    -7.1256961758222e-06
  63    -0.0019590585414217
  64    0.00060759095846193
  65    0.0014003379904648
  66    -0.0023066272816282
  67    -0.00015476322268094
  68    -0.00081310669889306
  69    0.00085977518250431
  70    4.9495296782002e-05
  71    0.00039237230054934
  72    1.7782681149666e-05
  73    -9.1369602086409e-05
  74    -6.2287381418578e-05
  75    -0.00028375448815272
  76    0.00012035643886883
  77    -0.0013678035584266
  78    0.0089692200279311
  79    -0.011347215919902
  80    -0.0065346706052598
  81     0.018071071002524
  82    -0.0080035130446603
  83     0.010004455761352
  84      0.03064215934665
  85    -0.013808768520073
  86     0.017432577010395
  87     0.050506291704107
  88    -0.022134070917483
  89     0.027766976736331
  90    -0.00048518765508379
  91    0.0019647057151717
  92    -0.0004517738365511
  93    0.00086838258957858
  94    -0.0012409574592882
  95    8.187441797392e-05
  96    -0.00055759288552193
  97    0.0022451853854139
  98    -0.0045303465858852
  99    -0.011791107071822
 100    -0.025701019821944
 101    0.0080044099904605
 102    -0.019903133944112
 103    -0.043317402259199
 104     0.013350245683183
 105    -0.031869058145113
 106    -0.073903377752349
 107     0.022203306601207
 108    -0.00070917396953974
 109    0.0013556838870251
 110    0.0016571099531058
 111    -0.0020452239765594
 112    -0.0012718934556324
 113    0.00020085753321243
 114    -0.0013304927193273
 115    0.0030810232176934
 116    -0.0026417318873956
 117     -0.01324428907495
 118     0.007778235910765
 119     0.021922872778981
 120    -0.022201994792744
 121     0.013102657677134
 122     0.036790145236995
 123    -0.037137998769841
 124     0.023095633897184
 125     0.062105478462267
 126    -0.00098988202211883
 127    0.0012773991190264
 128    0.0015530998885768
 129    -0.0016691708624329
 130    -0.00079496551670571
 131    0.00022416267764507
 132    -0.0015135706917004
 133    0.0028146549671709
 134     0.001491030054658
 135    0.0015525845512036
 136    -0.00083853258399244
 137    -0.00078408711078581
 138    0.0028636664714481
 139    -0.0014347027400516
 140    -0.0013731405350179
 141    0.0037564121711727
 142    -0.0032801898889926
 143    -0.0030828535322017
 144    0.00010629936762637
 145    0.00031181266244701
 146    -5.1473369940366e-05
 147    -0.00017675522226466
 148    0.00024837522436144
 149    -7.7414905229456e-05
 150    0.00050917068203404
 151    -0.0003703169947246
 152    -0.0032623783308345
 153    -0.0010522168374069
 154    -7.6967851531139e-05
 155    0.0006941219320136
 156    -0.0018311212911128
 157    -0.00018378405390793
 158    0.0012500879606888
 159    -0.0035837885988273
 160    0.00080130671440155
 161    0.00049861149640331
 162    -4.5390890782367e-05
 163    -0.0001408231963527
 164    5.5476550257628e-05
 165    9.5034400006654e-05
 166    3.0585928588208e-05
 167    0.00010070385587294
 168    -0.00068137262240691
 169    0.0014329182470786
 170    -0.00028895002826975
 171    0.00075406139496928
 172    0.00040693526168184
 173    0.00078926538832527
 174     0.001370475568374
 175    0.00074411085746072
 176    0.0013015297540415
 177    0.0019864325341888
 178    0.0009305352650674
 179    0.0026917331389212
 180    0.00010614559632292
 181    -0.00013540675860164
 182    -1.287004113706e-05
 183    -0.00010585473386359
 184    -0.00017965845961225
 Sym= A
 Ene=               2
 Spin= Alpha
 Occup=    1.00000
   1    -0.00083342290456624
   2    0.0024797521680669
   3    -0.011079234985408
   4     0.021070785978404
   5    -0.0075544874454215
   6    -4.4083534919847e-05
   7    0.0065214085801407
   8    0.0033023055725043
   9    0.00011512250578117
  10    -0.020054897095385
  11    -0.010088176955898
  12    0.00092727162542918
  13     0.028261432745254
  14     0.015721005170308
  15      0.52478932055671
  16      0.15477636684336
  17      0.46394355936496
  18      0.13091969094685
  19      0.48633748051771
  20      0.14098167839221
  21      0.04074091457533
  22      0.12459804480266
  23     0.034781653379669
  24      0.12900282189579
  25    0.00059363468181062
  26    0.0013496030883446
  27    0.00055241028456484
  28    0.00067544106556415
  29    0.0017073268108688
  30    7.8919435583048e-05
  31    0.0015208093559274
  32    -0.0022475313026205
  33    -0.0058798220546773
  34    -0.0028871779012506
  35     -0.00921349064744
  36     0.076074828114258
  37     0.042438557353672
  38    -0.010232396908207
  39     0.073251892293621
  40     0.041430301992399
  41    0.00063102110873936
  42    -0.0012348060622075
  43    0.0011389830084397
  44    0.00049702379072461
  45    -0.0016929106717184
  46    -0.00051488386678984
  47    0.0015250851956298
  48    -0.0069092981550316
  49    0.0083677278956781
  50    -0.0020154024739516
  51    0.0021767133921725
  52    0.0022255628418237
  53    0.00050574154036369
  54    -0.0069497095631004
  55    -0.0070862501130514
  56    -0.0016208243378247
  57    0.0055215115667626
  58     0.014249605127663
  59    0.0069230989311899
  60    -0.0013746745541526
  61    0.00013052209251861
  62    -0.00042130816661661
  63    0.0014505974652535
  64    0.0021720378455813
  65    -0.0012381715548115
  66    0.0019759921292514
  67    -0.001219663772685
  68    0.00051704361605749
  69    0.0049898545264952
  70    -2.0144247768226e-05
  71    -0.0003343656951435
  72    -0.00014483022917012
  73    0.00011147968088259
  74    -0.00034979232149773
  75    0.00027010086598335
  76    0.00066390636762666
  77    7.9002532376372e-05
  78    -0.00051251482281486
  79    0.00010578277572601
  80    0.0010166242598247
  81    0.0031730810759512
  82    -0.022896936393136
  83    -0.013944421307997
  84    0.0053317672522857
  85    -0.038615605585555
  86    -0.023631832696936
  87    0.0090283694295073
  88    -0.065522892525731
  89    -0.039931908714169
  90    -0.0025944406609909
  91    0.00043611591162024
  92    -0.001327070743229
  93    -0.0014283596301213
  94    -0.00011700361195745
  95    -0.00042605623352987
  96    0.0028453424548592
  97    -0.0053327050586451
  98    0.0036238570593355
  99     0.016228692977722
 100    -0.0098706677742751
 101     0.013859322542899
 102     0.027545719365013
 103     -0.01657454803754
 104     0.023278593684449
 105      0.04378267785478
 106    -0.028271221448063
 107     0.040372769031659
 108    -0.0023956318784883
 109    -2.5150475479848e-05
 110    9.5047285368668e-06
 111    0.00086353106680413
 112    -0.0012544579698344
 113    0.0010875892834943
 114    -0.0071239806215336
 115    0.0093740329455036
 116    0.0032731515288215
 117    -0.015793550308326
 118    -0.0090163879674721
 119    -0.0078060697880624
 120      -0.0266504216058
 121    -0.015469876640058
 122    -0.013070845012363
 123    -0.044003681935861
 124    -0.024868261225264
 125    -0.022775825824979
 126    0.0009465603986331
 127    0.00021193455898365
 128    -0.001150497848734
 129    -0.00078569434401784
 130    -0.0011652291483166
 131    -0.00029241024822821
 132    0.0019351035461755
 133    -0.0025939930889053
 134    -0.0053213216343709
 135    -0.0024305960511343
 136    -3.7291192546634e-05
 137    0.0019501618089951
 138    -0.0042739426971409
 139    -0.00011350757764619
 140    0.0033027775045579
 141    -0.0065491834916983
 142    0.0011618850822338
 143    0.0080870273776067
 144    -3.691256172401e-05
 145    -0.00054286618864361
 146    -6.1547700547884e-05
 147    0.00029642306679834
 148    -9.0980720904407e-05
 149    -9.8895509075004e-05
 150    0.00066368637964055
 151    -0.0012810804692733
 152    -9.7312568304349e-05
 153    -0.00089671669533182
 154    -0.00045666199862842
 155    -0.00078704217930844
 156     -0.00160638356708
 157    -0.00064709637628296
 158    -0.0012643295539725
 159    -0.0024753977314469
 160    -0.0023337956455053
 161    -0.0028358573179764
 162    -0.00017694922681838
 163    0.00012587917807777
 164    -2.1442540771202e-05
 165    0.00012321720365636
 166    2.410899959334e-05
 167    0.00027012554007585
 168    -0.0017976788199943
 169    0.0026167625596195
 170     0.004523824933178
 171     0.003006117315424
 172    0.00081786899302273
 173    -0.00082798201335821
 174     0.005402975140268
 175    0.0013606466552862
 176     -0.00149948808322
 177    0.0077189260507285
 178    0.0046329498627604
 179    -0.0013589826220005
 180    0.00012663964075377
 181    0.00021916989331083
 182    0.00019121917952946
 183    -0.00053504387156498
 184    -0.00021072647962859
 Sym= A
 Ene=               3
 Spin= Alpha
 Occup=    1.00000
   1    -0.00060853358391046
   2    0.0018142423864945
   3    -0.0080868826507269
   4      0.01004391955596
   5    0.0019742416688372
   6    -0.0023363887630133
   7    -0.0044964614847126
   8    0.0042158089320859
   9    0.0072438264265365
  10     0.014206161262572
  11    -0.013410042414196
  12    -0.006349223149963
  13    -0.0073195300721902
  14    0.0058593368129602
  15     -0.55573373156533
  16     -0.37269620980417
  17      0.30124322203503
  18     -0.11361236064074
  19      0.46174646384775
  20     -0.14551693864786
  21    -0.096016565855475
  22     0.078683804453441
  23    -0.031178644811387
  24      0.11884562694976
  25    -0.00018544042874909
  26    -0.0018424290097897
  27    -5.7470488290398e-05
  28    -0.0015978291813466
  29    0.0013404472543305
  30    0.0002227891826764
  31    0.0018834257841883
  32    0.0049522555905725
  33     0.012110735836754
  34    0.0094532742020172
  35     0.024701384690704
  36     0.080574295798642
  37    -0.072928725850697
  38     0.027708648065118
  39     0.078729708553069
  40    -0.070917844386649
  41    -0.00072504458911365
  42    0.0020999571291869
  43    0.0011412673295667
  44    -0.0011128000532352
  45    -0.0018368762945101
  46    0.00099724033825047
  47    -0.0029515374082002
  48     0.013400585597062
  49    -0.014466105710854
  50     0.004665590389474
  51    -0.004368850960798
  52    0.0025493865368791
  53    -0.0010423946006421
  54     0.014013367405039
  55    -0.0081151053650652
  56    0.0033440834419935
  57    -0.013263301057889
  58     0.015551065886136
  59    -0.013740099813668
  60    0.0018787849519398
  61    -7.8200152672409e-05
  62    -0.00050362599138774
  63    -0.003402482948219
  64    0.0022532445933285
  65    0.0021828916380556
  66    -0.0033959813417404
  67    -0.0016094055784972
  68    -0.0020288138457044
  69    0.0052258597161341
  70    1.6813314931485e-05
  71    0.00060519430597034
  72    -6.3329954541618e-05
  73    -1.2598630868645e-05
  74    -0.00037244518642943
  75    -0.00049413655516996
  76    0.00070224170066929
  77    0.0036842559790973
  78    -0.024146621756339
  79     0.030150272624174
  80     0.030433161737697
  81     0.010490711919205
  82     0.027802840103722
  83    -0.029951513713132
  84     0.017497772633748
  85     0.047315335886979
  86    -0.051387892732116
  87     0.029785447533975
  88     0.083035102576424
  89    -0.091863781408044
  90    0.0011947047335984
  91    0.0017922832850758
  92    -4.8774475420092e-05
  93    -1.0418917768447e-05
  94    -0.00041264209441103
  95    -0.00049070854167517
  96    0.0031845107765886
  97    -0.0034601315522049
  98    -0.005860423351936
  99    0.00068600737662215
 100    0.0051535525232039
 101    -0.011277395272623
 102    0.0012071274792934
 103    0.0089057773395936
 104    -0.019222276808965
 105    0.0027498137925373
 106     0.013263497745434
 107    -0.032102202746126
 108    0.0008171524876215
 109    -0.00044144450007971
 110    -0.00034345162139602
 111    0.00038528308250461
 112     0.001549461889894
 113    -0.0028928494300765
 114     0.018835372162988
 115    -0.022654912679822
 116    -0.025959841714058
 117    -0.00049587613978017
 118     0.029140864562445
 119    -0.021810550069308
 120    -0.00057243606657624
 121     0.049168087172423
 122    -0.036474007186001
 123    -2.9470469073783e-05
 124     0.088167415333491
 125    -0.063881074225753
 126    0.00070082708068565
 127    -0.00026002598147676
 128    -0.0001476054535939
 129    0.0011235027322921
 130    -0.001894767424934
 131    0.00017049919607446
 132    -0.0011401136925149
 133    0.0017250451043497
 134     0.002424857302008
 135    0.00042042230321045
 136    -0.0015521388337017
 137    -0.00049730744062723
 138    0.00072036308549518
 139    -0.0024571555497784
 140    -0.00090432183091626
 141    0.0020352120628984
 142    -0.0065318272294743
 143    -0.0020248183160936
 144    4.313459270015e-05
 145    0.00031011178173035
 146    -0.00012781014117376
 147    -5.3133615158873e-05
 148    0.00031408146525272
 149    -0.00018101868868921
 150     0.001188612610416
 151    -0.00091503143900714
 152    -0.0072151148312176
 153    -0.0025471171367154
 154    -0.0005419048238562
 155    0.00090445372231206
 156    -0.0044513097677084
 157    -0.00099375745445258
 158    0.0017626264133586
 159    -0.0083261905239514
 160    0.00016375101728648
 161    -0.0010737438329061
 162    -0.00015525851910651
 163    -0.00028851713292085
 164    0.00013359621999421
 165    0.00018912012939667
 166    0.00016096990902066
 167    0.00040050709717534
 168    -0.0026828483225586
 169    0.0046674357854906
 170    0.0029472414169004
 171    0.0033146510060278
 172    0.0015382442926139
 173     0.000990519767033
 174    0.0058706756883231
 175    0.0027425884692057
 176    0.0014937002482376
 177    0.0094797434439844
 178    0.0053205185133946
 179     0.004615013868764
 180    0.00038494983995769
 181    -0.00010768424795523
 182    0.00010945553932274
 183    -0.00050855186136761