[Molden Format]
made by pyscf v[2.1.1]
[Atoms] (AU)
Fe   1   26     3.17068844873907     0.00098706064664     0.12237737881307
O   2   8     0.00000000000000     0.00000000000000    -0.89004350580623
Fe   3   26    -3.17068844873907    -0.00098706064664     0.12237737881307
Cl   4   17     3.53383895113107    -2.07485195383062     3.76228752659000
Cl   5   17     5.54152580550813    -1.85590924879884    -2.78672786652360
Cl   6   17     4.48169216485503     3.92976278472880    -0.95330240907949
Cl   7   17    -3.53383895113107     2.07485195383062     3.76228752659000
Cl   8   17    -5.54152580550813     1.85590924879884    -2.78672786652360
Cl   9   17    -4.48169216485503    -3.92976278472880    -0.95330240907949
[GTO]
1 0
 s    6 1.00
          60923.640643  0.0017552243692958
          9147.8893982   0.013449023284001
          2081.3505927   0.066678874640978
          587.55977067    0.23176348548844
           191.0904399    0.46945550248188
          65.732730112     0.3596824938678
 s    3 1.00
          127.25891928   -0.10723431835929
           14.83091301    0.62971616328466
          6.0653307408    0.44472317896179
 s    3 1.00
           10.44994371   -0.21694289195548
          1.7245228003    0.69457867408393
         0.71772177325    0.43298308896347
 s    1 1.00
        0.091449828308                   1
 s    1 1.00
        0.033706691021                   1
 p    5 1.00
          773.43750995  0.0091440529992506
          182.15149714   0.067887577136571
          57.547272758    0.26167978878504
          20.614988935    0.51088040113251
           7.634855789    0.33235475570224
 p    3 1.00
           3.871932799    0.33193859098144
          1.4924724132     0.5553666555499
         0.56061284958    0.23106034201617
 p    1 1.00
              0.134915                   1
 d    4 1.00
          38.968133419   0.033335938558743
          10.800067078    0.17766212505983
          3.6136457999      0.441281781625
          1.2129967888    0.57089200490673
 d    1 1.00
          0.3652439317                   1
 f    1 1.00
                 1.598                   1

2 0
 s    5 1.00
          2266.1767785  -0.0053893503921743
          340.87010191   -0.04023472138896
          77.363135167   -0.18008184205526
           21.47964494   -0.46828857657651
          6.6589433124   -0.44692617160187
 s    1 1.00
         0.80975975668                   1
 s    1 1.00
         0.25530772234                   1
 p    3 1.00
          17.721504317   0.062630248763161
           3.863550544    0.33331138482352
          1.0480920883    0.74148638308122
 p    1 1.00
         0.27641544411                   1
 d    1 1.00
                   1.2                   1

3 0
 s    6 1.00
          60923.640643  0.0017552243692958
          9147.8893982   0.013449023284001
          2081.3505927   0.066678874640978
          587.55977067    0.23176348548844
           191.0904399    0.46945550248188
          65.732730112     0.3596824938678
 s    3 1.00
          127.25891928   -0.10723431835929
           14.83091301    0.62971616328466
          6.0653307408    0.44472317896179
 s    3 1.00
           10.44994371   -0.21694289195548
          1.7245228003    0.69457867408393
         0.71772177325    0.43298308896347
 s    1 1.00
        0.091449828308                   1
 s    1 1.00
        0.033706691021                   1
 p    5 1.00
          773.43750995  0.0091440529992506
          182.15149714   0.067887577136571
          57.547272758    0.26167978878504
          20.614988935    0.51088040113251
           7.634855789    0.33235475570224
 p    3 1.00
           3.871932799    0.33193859098144
          1.4924724132     0.5553666555499
         0.56061284958    0.23106034201617
 p    1 1.00
              0.134915                   1
 d    4 1.00
          38.968133419   0.033335938558743
          10.800067078    0.17766212505983
          3.6136457999      0.441281781625
          1.2129967888    0.57089200490673
 d    1 1.00
          0.3652439317                   1
 f    1 1.00
                 1.598                   1

4 0
 s    5 1.00
          10449.827566  0.0054265953789407
          1571.7365221   0.040626378128836
          357.12065523    0.18359747852877
          100.25185935    0.47438948768198
          30.812727554    0.43735181104122
 s    3 1.00
          51.923789434  -0.092754154848099
          5.7045760975    0.56380825544207
          2.3508376809    0.50367044629712
 s    1 1.00
         0.44605124672                   1
 s    1 1.00
          0.1684885619                   1
 p    5 1.00
          307.66790569  -0.0088797025588865
          72.102015515  -0.064284071721237
          22.532680262   -0.24288739736006
          7.8991765444   -0.48340836369878
          2.8767268321   -0.38952563875509
 p    1 1.00
         0.77459363955                   1
 p    1 1.00
         0.21037699698                   1
 d    1 1.00
                  0.65                   1

5 0
 s    5 1.00
          10449.827566  0.0054265953789407
          1571.7365221   0.040626378128836
          357.12065523    0.18359747852877
          100.25185935    0.47438948768198
          30.812727554    0.43735181104122
 s    3 1.00
          51.923789434  -0.092754154848099
          5.7045760975    0.56380825544207
          2.3508376809    0.50367044629712
 s    1 1.00
         0.44605124672                   1
 s    1 1.00
          0.1684885619                   1
 p    5 1.00
          307.66790569  -0.0088797025588865
          72.102015515  -0.064284071721237
          22.532680262   -0.24288739736006
          7.8991765444   -0.48340836369878
          2.8767268321   -0.38952563875509
 p    1 1.00
         0.77459363955                   1
 p    1 1.00
         0.21037699698                   1
 d    1 1.00
                  0.65                   1

6 0
 s    5 1.00
          10449.827566  0.0054265953789407
          1571.7365221   0.040626378128836
          357.12065523    0.18359747852877
          100.25185935    0.47438948768198
          30.812727554    0.43735181104122
 s    3 1.00
          51.923789434  -0.092754154848099
          5.7045760975    0.56380825544207
          2.3508376809    0.50367044629712
 s    1 1.00
         0.44605124672                   1
 s    1 1.00
          0.1684885619                   1
 p    5 1.00
          307.66790569  -0.0088797025588865
          72.102015515  -0.064284071721237
          22.532680262   -0.24288739736006
          7.8991765444   -0.48340836369878
          2.8767268321   -0.38952563875509
 p    1 1.00
         0.77459363955                   1
 p    1 1.00
         0.21037699698                   1
 d    1 1.00
                  0.65                   1

7 0
 s    5 1.00
          10449.827566  0.0054265953789407
          1571.7365221   0.040626378128836
          357.12065523    0.18359747852877
          100.25185935    0.47438948768198
          30.812727554    0.43735181104122
 s    3 1.00
          51.923789434  -0.092754154848099
          5.7045760975    0.56380825544207
          2.3508376809    0.50367044629712
 s    1 1.00
         0.44605124672                   1
 s    1 1.00
          0.1684885619                   1
 p    5 1.00
          307.66790569  -0.0088797025588865
          72.102015515  -0.064284071721237
          22.532680262   -0.24288739736006
          7.8991765444   -0.48340836369878
          2.8767268321   -0.38952563875509
 p    1 1.00
         0.77459363955                   1
 p    1 1.00
         0.21037699698                   1
 d    1 1.00
                  0.65                   1

8 0
 s    5 1.00
          10449.827566  0.0054265953789407
          1571.7365221   0.040626378128836
          357.12065523    0.18359747852877
          100.25185935    0.47438948768198
          30.812727554    0.43735181104122
 s    3 1.00
          51.923789434  -0.092754154848099
          5.7045760975    0.56380825544207
          2.3508376809    0.50367044629712
 s    1 1.00
         0.44605124672                   1
 s    1 1.00
          0.1684885619                   1
 p    5 1.00
          307.66790569  -0.0088797025588865
          72.102015515  -0.064284071721237
          22.532680262   -0.24288739736006
          7.8991765444   -0.48340836369878
          2.8767268321   -0.38952563875509
 p    1 1.00
         0.77459363955                   1
 p    1 1.00
         0.21037699698                   1
 d    1 1.00
                  0.65                   1

9 0
 s    5 1.00
          10449.827566  0.0054265953789407
          1571.7365221   0.040626378128836
          357.12065523    0.18359747852877
          100.25185935    0.47438948768198
          30.812727554    0.43735181104122
 s    3 1.00
          51.923789434  -0.092754154848099
          5.7045760975    0.56380825544207
          2.3508376809    0.50367044629712
 s    1 1.00
         0.44605124672                   1
 s    1 1.00
          0.1684885619                   1
 p    5 1.00
          307.66790569  -0.0088797025588865
          72.102015515  -0.064284071721237
          22.532680262   -0.24288739736006
          7.8991765444   -0.48340836369878
          2.8767268321   -0.38952563875509
 p    1 1.00
         0.77459363955                   1
 p    1 1.00
         0.21037699698                   1
 d    1 1.00
                  0.65                   1

[5d]
[7f]
[9g]

[MO]
 Sym= A
 Ene=               0
 Spin= Alpha
 Occup=    1.00000
   1    -0.0048573093583101
   2     0.016122303578503
   3    -0.059144149186066
   4    4.0129679011459e-05
   5    -0.010947380513889
   6    -0.035803146331061
   7    -0.00051937946976316
   8    -0.016545020647005
   9      0.11986354794941
  10    0.0016371967705189
  11     0.054191008600432
  12     0.020411658563966
  13    -0.0023943024711623
  14     0.016141705215106
  15    -0.00017087353084544
  16    0.0052792570338647
  17    -0.00080443113184182
  18     0.003307326872462
  19    0.0002575306577111
  20    0.00087622877256751
  21    -0.0016209391993805
  22    -0.0018969505643524
  23    -0.0017706658178179
  24    6.6355129010202e-05
  25    -0.00011502647270606
  26    -0.00020024340001742
  27    -0.00015334096611935
  28    0.00021741606964969
  29    -1.2564481768755e-05
  30    0.00040740013682452
  31    -4.7013372465853e-05
  32    -0.056969398790969
  33     -0.17385733191028
  34     -0.14324039449305
  35      0.05430804440538
  36    -0.0010714182844662
  37    -0.012369825840493
  38     0.065595529112556
  39    -0.0022091214066737
  40    -0.017155997717316
  41    0.0024233339958189
  42    0.0027055636543794
  43    -8.4854704789288e-05
  44    -0.0059386098587933
  45    6.2552837005569e-06
  46    -0.014253196219246
  47     0.033915049425967
  48     -0.22532765772352
  49     -0.26817782291226
  50     0.075778916338919
  51    -0.038896012863328
  52    -0.0012689818154297
  53     0.016489468689834
  54      0.12938552851244
  55     0.003907662373348
  56    -0.053903595599837
  57     0.063458625008952
  58    0.0010675209871042
  59    -0.016676205756522
  60    -0.0059460268422939
  61    -0.0081686673554957
  62    -0.016251081009942
  63    0.0045642863834341
  64    0.0017881732395021
  65    -0.0089425269366757
  66     -0.01279638392897
  67    -0.011209717826008
  68     0.014343023952032
  69    0.0011533043416234
  70    -0.0022377375809307
  71    0.0014559901513533
  72    -0.0026482314607776
  73    0.0015906932222365
  74    -0.00049983606053134
  75    -0.0025994688881868
  76    -0.00093827559177701
  77    0.0011806311857189
  78    -0.0088899270519145
  79     0.026204561129181
  80    0.0068777429558434
  81     0.011064943414084
  82    0.0031758337981869
  83    -0.002324367148233
  84     0.018773161156896
  85    0.0078950172039658
  86    -0.0081791770828442
  87     0.030587814230622
  88    0.0085324748647244
  89    -0.007709535575368
  90    0.00058793321890117
  91    -0.0010106306164944
  92    -0.00075770087528277
  93    -0.00044658064491963
  94    0.00067780010852032
  95    0.0010742256140798
  96    -0.0082619888655788
  97     0.022706068311326
  98      0.01985623793759
  99    0.0097604985801866
 100    0.00054788701106138
 101    0.0051338502042552
 102     0.014087943570371
 103    0.0029032988339241
 104     0.012051426429634
 105     0.019992080209865
 106    0.0055667521393444
 107     0.018031581906153
 108    0.00074701499080839
 109    -0.0002579512870107
 110    0.00079739380376634
 111    -0.00022595686279398
 112    -0.00017024231796591
 113    0.00078912347125104
 114    -0.0063337830511036
 115     0.020048040647797
 116     0.014824069025132
 117     0.010896071283068
 118    -0.000174462554795
 119    0.0045553147508261
 120     0.017345284056958
 121    -0.0042896313779965
 122    0.0090338998078205
 123     0.026755370652817
 124    -0.0071523543140477
 125     0.012436965416689
 126    -9.891418218202e-05
 127    0.00023277041088352
 128    -0.00054003180102798
 129    -0.00069224332394157
 130    -0.00039699700705308
 131    -0.013756644396726
 132     0.095526523205928
 133     -0.19737461124185
 134     -0.11267152566324
 135    0.0015121698324843
 136     0.035302408265831
 137     0.053723682965074
 138    0.00058970464385074
 139     0.073396069856299
 140      0.11542180258002
 141    -0.0012792669953282
 142     0.099019276119823
 143      0.15117161716891
 144    -0.010917309475215
 145    0.0010590361301934
 146    -0.013769812183442
 147    0.0042702364925833
 148    0.00068428877058098
 149    -0.013370395695658
 150     0.093249351575514
 151     -0.19667275735074
 152     -0.10832361543257
 153    -0.027748528363205
 154     0.023449040104883
 155    -0.045884485095607
 156    -0.062487722665682
 157     0.052936918554917
 158    -0.097319106596172
 159       -0.084938284311
 160     0.063629458000348
 161     -0.12769779576579
 162    -0.0054392094864284
 163    -0.011811798923719
 164    0.0096365855385132
 165    -0.0011296243712106
 166    0.0070031589566199
 167    -0.012766414670388
 168      0.08888203166396
 169     -0.18552266921311
 170     -0.10521744430229
 171    -0.011699537251436
 172      -0.0530263386575
 173    -0.024053325095395
 174    -0.027522736257364
 175     -0.11489724760341
 176    -0.046616821462954
 177    -0.039166759733899
 178     -0.14857487480065
 179    -0.068826266767342
 180    0.0055807304846539
 181    -0.0022473449455643
 182    -0.0079157703564771
 183     0.011080711344231
 184    -0.0065510616302605
 Sym= A
 Ene=               1
 Spin= Alpha
 Occup=    1.00000
   1    0.00052574718285207
   2    -0.0015699611397403
   3    0.0070002761516791
   4    -0.0074469133637634
   5    0.0013408820059499
   6     0.002428475252303
   7    -0.0005253847418786
   8    -0.00083763859105761
   9    -0.0077508893046569
  10    0.0016720505223073
  11    0.0026746112166343
  12    0.0067288818571248
  13    -0.0030768697790539
  14    -0.0085391237510738
  15    0.0012752476237243
  16    0.00071361451318019
  17    7.1256961756531e-06
  18    -0.0019590585414221
  19    0.00060759095846159
  20    0.0014003379904648
  21    0.0023066272816283
  22    0.00015476322268099
  23    -0.00081310669889321
  24    0.00085977518250442
  25    4.9495296781997e-05
  26    -0.00039237230054935
  27    -1.7782681149662e-05
  28    -9.1369602086399e-05
  29    -6.2287381418595e-05
  30    0.00028375448815273
  31    -0.00012035643886886
  32    0.0018812243920046
  33    0.0050967824898967
  34    0.0025537362739757
  35    -0.0086483864573976
  36    -0.014399737334502
  37    -0.049584912401236
  38    -0.0094574936068585
  39    -0.014021458953782
  40    -0.048219577465611
  41    -0.00020486316905469
  42    -0.0012000329439868
  43    0.0001974656807188
  44    -0.00011826104500727
  45    -0.00019572921819553
  46    0.0012624744301206
  47    -0.0037551393587948
  48     0.016795124211712
  49    -0.031469241005757
  50     0.013929159754868
  51    -0.00067801989819217
  52    -0.0014776969243763
  53    -0.004808240053379
  54    0.0021473194318845
  55    0.0046677566308192
  56     0.014936499479727
  57    -0.002334654005907
  58    -0.0057445578952504
  59    -0.021809710771231
  60      0.20129517106665
  61      0.47894349029449
  62      0.48273038468826
  63      0.43357080796759
  64      0.28034089306659
  65     0.054083637159308
  66         0.12836789478
  67      0.13067659564536
  68       0.1176535044846
  69     0.075327869636365
  70    0.0010658442475069
  71    0.0010670254540592
  72    0.0009805420132508
  73    -0.00025921590584625
  74    -0.00029218080058189
  75    -0.00088712756817914
  76    -0.0005729454675007
  77    0.00022416267764507
  78    -0.0015135706917003
  79    0.0028146549671709
  80     0.001491030054658
  81    -0.0015525845512035
  82    0.00083853258399249
  83    -0.00078408711078578
  84    -0.0028636664714481
  85    0.0014347027400517
  86    -0.0013731405350179
  87    -0.0037564121711727
  88    0.0032801898889928
  89    -0.0030828535322016
  90    0.00010629936762637
  91    -0.00031181266244701
  92    5.1473369940372e-05
  93    -0.00017675522226465
  94    0.00024837522436144
  95    -7.7414905229458e-05
  96    0.00050917068203405
  97    -0.00037031699472461
  98    -0.0032623783308346
  99    0.0010522168374069
 100    7.6967851531191e-05
 101    0.00069412193201361
 102    0.0018311212911129
 103    0.00018378405390801
 104    0.0012500879606888
 105    0.0035837885988274
 106    -0.00080130671440144
 107    0.00049861149640324
 108    -4.5390890782368e-05
 109    0.00014082319635271
 110    -5.5476550257632e-05
 111    9.5034400006653e-05
 112    3.0585928588219e-05
 113    0.00010070385587296
 114    -0.00068137262240704
 115    0.0014329182470788
 116    -0.00028895002826951
 117    -0.00075406139496942
 118    -0.00040693526168192
 119    0.00078926538832528
 120    -0.0013704755683742
 121    -0.00074411085746085
 122    0.0013015297540415
 123    -0.0019864325341892
 124    -0.0009305352650677
 125    0.0026917331389213
 126    0.00010614559632294
 127    0.00013540675860164
 128    1.2870041137052e-05
 129    -0.00010585473386362
 130    -0.00017965845961228
 131    -0.0013678035584265
 132    0.0089692200279306
 133    -0.011347215919901
 134    -0.0065346706052591
 135    -0.018071071002525
 136    0.0080035130446599
 137     0.010004455761352
 138    -0.030642159346651
 139     0.013808768520072
 140     0.017432577010393
 141    -0.050506291704109
 142     0.022134070917482
 143     0.027766976736329
 144    -0.00048518765508379
 145    -0.0019647057151718
 146    0.00045177383655111
 147    0.00086838258957856
 148    -0.0012409574592883
 149    8.187441797391e-05
 150    -0.00055759288552187
 151    0.0022451853854138
 152    -0.0045303465858852
 153     0.011791107071822
 154     0.025701019821944
 155    0.0080044099904606
 156     0.019903133944111
 157     0.043317402259199
 158     0.013350245683183
 159     0.031869058145112
 160     0.073903377752349
 161     0.022203306601207
 162    -0.00070917396953976
 163    -0.0013556838870251
 164    -0.0016571099531057
 165    -0.0020452239765594
 166    -0.0012718934556324
 167    0.00020085753321233
 168    -0.0013304927193267
 169    0.0030810232176926
 170    -0.0026417318873965
 171      0.01324428907495
 172    -0.007778235910766
 173      0.02192287277898
 174     0.022201994792744
 175    -0.013102657677135
 176     0.036790145236994
 177     0.037137998769841
 178    -0.023095633897187
 179     0.062105478462265
 180    -0.0009898820221188
 181    -0.0012773991190264
 182    -0.0015530998885768
 183    -0.0016691708624329
 184    -0.00079496551670576
 Sym= A
 Ene=               2
 Spin= Alpha
 Occup=    1.00000
   1    -0.00051488386678987
   2    0.0015250851956299
   3    -0.0069092981550319
   4    0.0083677278956783
   5    -0.0020154024739515
   6    -0.0021767133921726
   7    -0.0022255628418237
   8    0.00050574154036367
   9    0.0069497095631006
  10    0.0070862501130514
  11    -0.0016208243378247
  12    -0.0055215115667629
  13    -0.014249605127663
  14    0.0069230989311899
  15    -0.0013746745541523
  16    -0.00013052209251759
  17    0.00042130816661608
  18    0.0014505974652533
  19    0.0021720378455812
  20    -0.0012381715548114
  21    -0.0019759921292511
  22    0.0012196637726849
  23    0.00051704361605744
  24    0.0049898545264951
  25    -2.0144247768224e-05
  26    0.00033436569514351
  27    0.00014483022917012
  28    0.00011147968088259
  29    -0.00034979232149773
  30    -0.00027010086598335
  31    -0.00066390636762667
  32    -0.0022475313026207
  33    -0.0058798220546778
  34    -0.0028871779012513
  35    0.0092134906474411
  36    -0.076074828114259
  37     0.042438557353672
  38     0.010232396908208
  39    -0.073251892293621
  40     0.041430301992399
  41    0.00063102110873935
  42    0.0012348060622075
  43    -0.0011389830084397
  44    0.00049702379072463
  45    -0.0016929106717184
  46    -0.00083342290456625
  47     0.002479752168067
  48    -0.011079234985408
  49     0.021070785978404
  50    -0.0075544874454219
  51    4.4083534919701e-05
  52    -0.0065214085801406
  53    0.0033023055725044
  54    -0.00011512250578073
  55     0.020054897095385
  56    -0.010088176955898
  57    -0.00092727162542959
  58    -0.028261432745254
  59     0.015721005170309
  60      0.52478932055671
  61     -0.15477636684337
  62     -0.46394355936497
  63      0.13091969094685
  64       0.4863374805177
  65      0.14098167839221
  66    -0.040740914575332
  67     -0.12459804480266
  68     0.034781653379668
  69      0.12900282189579
  70    0.00059363468181059
  71    -0.0013496030883446
  72    -0.00055241028456485
  73    0.00067544106556417
  74    0.0017073268108689
  75    -7.8919435583054e-05
  76    -0.0015208093559274
  77    -0.00029241024822822
  78    0.0019351035461756
  79    -0.0025939930889055
  80    -0.005321321634371
  81    0.0024305960511343
  82    3.7291192546593e-05
  83    0.0019501618089951
  84    0.0042739426971409
  85    0.00011350757764611
  86     0.003302777504558
  87    0.0065491834916982
  88    -0.0011618850822339
  89     0.008087027377607
  90    -3.6912561724012e-05
  91    0.00054286618864361
  92    6.1547700547889e-05
  93    0.00029642306679835
  94    -9.0980720904409e-05
  95    -9.8895509075006e-05
  96    0.00066368637964056
  97    -0.0012810804692733
  98    -9.7312568304363e-05
  99    0.00089671669533182
 100    0.00045666199862843
 101    -0.00078704217930843
 102      0.00160638356708
 103    0.00064709637628298
 104    -0.0012643295539725
 105    0.0024753977314469
 106    0.0023337956455054
 107    -0.0028358573179764
 108    -0.00017694922681838
 109    -0.00012587917807778
 110     2.14425407712e-05
 111    0.00012321720365637
 112    2.4108999593336e-05
 113    0.00027012554007584
 114    -0.0017976788199943
 115    0.0026167625596194
 116     0.004523824933178
 117    -0.0030061173154239
 118    -0.0008178689930227
 119    -0.00082798201335821
 120    -0.005402975140268
 121    -0.0013606466552862
 122    -0.0014994880832201
 123    -0.0077189260507284
 124    -0.0046329498627604
 125    -0.0013589826220005
 126    0.00012663964075377
 127    -0.00021916989331083
 128    -0.00019121917952946
 129    -0.00053504387156498
 130    -0.00021072647962858
 131    7.900253237642e-05
 132    -0.00051251482281518
 133    0.00010578277572641
 134     0.001016624259825
 135    -0.0031730810759508
 136     0.022896936393135
 137    -0.013944421307997
 138    -0.005331767252285
 139     0.038615605585555
 140    -0.023631832696937
 141    -0.0090283694295062
 142      0.06552289252573
 143     -0.03993190871417
 144    -0.0025944406609909
 145    -0.0004361159116202
 146     0.001327070743229
 147    -0.0014283596301213
 148    -0.00011700361195742
 149    -0.00042605623352986
 150    0.0028453424548591
 151    -0.005332705058645
 152    0.0036238570593356
 153    -0.016228692977722
 154    0.0098706677742746
 155     0.013859322542899
 156    -0.027545719365013
 157     0.016574548037539
 158     0.023278593684448
 159     -0.04378267785478
 160     0.028271221448062
 161     0.040372769031658
 162    -0.0023956318784883
 163    2.5150475479866e-05
 164    -9.5047285368504e-06
 165    0.00086353106680415
 166    -0.0012544579698344
 167    0.0010875892834943
 168    -0.0071239806215336
 169    0.0093740329455036
 170    0.0032731515288215
 171     0.015793550308326
 172    0.0090163879674723
 173    -0.0078060697880628
 174     0.026650421605799
 175     0.015469876640058
 176    -0.013070845012364
 177     0.044003681935861
 178     0.024868261225265
 179     -0.02277582582498
 180    0.00094656039863312
 181    -0.00021193455898363
 182     0.001150497848734
 183    -0.00078569434401782
 184    -0.0011652291483166
 Sym= A
 Ene=               3
 Spin= Alpha
 Occup=    1.00000
   1    -0.00099724033825043
   2    0.0029515374082001
   3    -0.013400585597061
   4     0.014466105710853
   5    -0.004665590389474
   6    -0.0043688509607978
   7    0.0025493865368792
   8    0.0010423946006421
   9     0.014013367405038
  10    -0.0081151053650652
  11    -0.0033440834419934
  12    -0.013263301057888
  13     0.015551065886136
  14     0.013740099813667
  15    -0.0018787849519399
  16    -7.8200152672852e-05
  17    -0.00050362599138778
  18    0.0034024829482197
  19    -0.002253244593329
  20    -0.0021828916380556
  21    -0.0033959813417404
  22    -0.0016094055784972
  23    0.0020288138457046
  24    -0.0052258597161342
  25    -1.6813314931483e-05
  26    0.00060519430597032
  27    -6.332995454162e-05
  28    1.2598630868643e-05
  29    0.00037244518642943
  30    -0.00049413655516995
  31    0.00070224170066928
  32    -0.0049522555905724
  33    -0.012110735836754
  34    -0.009453274202017
  35     0.024701384690704
  36     0.080574295798642
  37     0.072928725850695
  38     0.027708648065117
  39     0.078729708553069
  40     0.070917844386647
  41    0.00072504458911364
  42    0.0020999571291868
  43    0.0011412673295667
  44    0.0011128000532352
  45    0.0018368762945102
  46    0.00060853358391048
  47    -0.0018142423864946
  48    0.0080868826507272
  49    -0.010043919555961
  50    -0.0019742416688367
  51    -0.0023363887630133
  52    -0.0044964614847128
  53    -0.0042158089320859
  54    0.0072438264265363
  55     0.014206161262572
  56     0.013410042414196
  57    -0.0063492231499628
  58    -0.0073195300721909
  59    -0.0058593368129603
  60      0.55573373156534
  61     -0.37269620980415
  62      0.30124322203504
  63      0.11361236064076
  64     -0.46174646384775
  65      0.14551693864787
  66     -0.09601656585547
  67     0.078683804453442
  68     0.031178644811392
  69     -0.11884562694976
  70    0.00018544042874914
  71    -0.0018424290097896
  72    -5.7470488290389e-05
  73    0.0015978291813466
  74    -0.0013404472543305
  75    0.00022278918267637
  76    0.0018834257841883
  77    -0.00017049919607445
  78    0.0011401136925148
  79    -0.0017250451043496
  80    -0.0024248573020078
  81    0.00042042230321039
  82    -0.0015521388337016
  83    0.00049730744062716
  84    0.00072036308549507
  85    -0.0024571555497783
  86    0.00090432183091615
  87    0.0020352120628983
  88    -0.0065318272294742
  89    0.0020248183160934
  90    -4.3134592700147e-05
  91    0.00031011178173033
  92    -0.00012781014117377
  93    5.3133615158866e-05
  94    -0.00031408146525271
  95    0.00018101868868921
  96    -0.001188612610416
  97    0.00091503143900713
  98    0.0072151148312174
  99    -0.0025471171367154
 100    -0.00054190482385624
 101    -0.00090445372231205
 102    -0.0044513097677084
 103    -0.00099375745445264
 104    -0.0017626264133586
 105    -0.0083261905239514
 106    0.00016375101728632
 107     0.001073743832906
 108    0.00015525851910651
 109    -0.00028851713292084
 110    0.00013359621999421
 111    -0.00018912012939667
 112    -0.00016096990902065
 113    -0.00040050709717533
 114    0.0026828483225585
 115    -0.0046674357854906
 116    -0.0029472414169004
 117    0.0033146510060278
 118    0.0015382442926139
 119    -0.00099051976703294
 120     0.005870675688323
 121    0.0027425884692056
 122    -0.0014937002482375
 123    0.0094797434439843
 124    0.0053205185133945
 125    -0.0046150138687638
 126    -0.00038494983995769
 127    -0.00010768424795522
 128    0.00010945553932274
 129    0.00050855186136761
 130    0.00063950513757532
 131    -0.0036842559790973
 132     0.024146621756339
 133    -0.030150272624174
 134    -0.030433161737697
 135     0.010490711919205
 136     0.027802840103722
 137     0.029951513713132
 138     0.017497772633747
 139     0.047315335886979
 140     0.051387892732115
 141     0.029785447533974
 142     0.083035102576425
 143     0.091863781408043
 144    -0.0011947047335984
 145    0.0017922832850757
 146    -4.8774475420054e-05
 147    1.0418917768449e-05
 148    0.00041264209441098
 149    0.00049070854167508
 150    -0.003184510776588
 151    0.0034601315522041
 152    0.0058604233519353
 153    0.00068600737662193
 154    0.0051535525232051
 155     0.011277395272622
 156     0.001207127479293
 157    0.0089057773395956
 158     0.019222276808965
 159    0.0027498137925366
 160     0.013263497745438
 161     0.032102202746124
 162    -0.00081715248762154
 163    -0.00044144450007978
 164    -0.00034345162139605
 165    -0.00038528308250468
 166    -0.001549461889894
 167    0.0028928494300765
 168    -0.018835372162988
 169     0.022654912679822
 170     0.025959841714058
 171    -0.00049587613977965
 172     0.029140864562446
 173     0.021810550069308
 174    -0.00057243606657535
 175     0.049168087172423
 176     0.036474007186002
 177    -2.947046907231e-05
 178     0.088167415333492
 179     0.063881074225755
 180    -0.00070082708068567
 181    -0.00026002598147678
 182    -0.00014760545359391