[Molden Format]
made by pyscf v[2.1.1]
[Atoms] (AU)
Fe   1   26     3.17068844873907     0.00098706064664     0.12237737881307
O   2   8     0.00000000000000     0.00000000000000    -0.89004350580623
Fe   3   26    -3.17068844873907    -0.00098706064664     0.12237737881307
Cl   4   17     3.53383895113107    -2.07485195383062     3.76228752659000
Cl   5   17     5.54152580550813    -1.85590924879884    -2.78672786652360
Cl   6   17     4.48169216485503     3.92976278472880    -0.95330240907949
Cl   7   17    -3.53383895113107     2.07485195383062     3.76228752659000
Cl   8   17    -5.54152580550813     1.85590924879884    -2.78672786652360
Cl   9   17    -4.48169216485503    -3.92976278472880    -0.95330240907949
[GTO]
1 0
 s    6 1.00
          60923.640643  0.0017552243692958
          9147.8893982   0.013449023284001
          2081.3505927   0.066678874640978
          587.55977067    0.23176348548844
           191.0904399    0.46945550248188
          65.732730112     0.3596824938678
 s    3 1.00
          127.25891928   -0.10723431835929
           14.83091301    0.62971616328466
          6.0653307408    0.44472317896179
 s    3 1.00
           10.44994371   -0.21694289195548
          1.7245228003    0.69457867408393
         0.71772177325    0.43298308896347
 s    1 1.00
        0.091449828308                   1
 s    1 1.00
        0.033706691021                   1
 p    5 1.00
          773.43750995  0.0091440529992506
          182.15149714   0.067887577136571
          57.547272758    0.26167978878504
          20.614988935    0.51088040113251
           7.634855789    0.33235475570224
 p    3 1.00
           3.871932799    0.33193859098144
          1.4924724132     0.5553666555499
         0.56061284958    0.23106034201617
 p    1 1.00
              0.134915                   1
 d    4 1.00
          38.968133419   0.033335938558743
          10.800067078    0.17766212505983
          3.6136457999      0.441281781625
          1.2129967888    0.57089200490673
 d    1 1.00
          0.3652439317                   1
 f    1 1.00
                 1.598                   1

2 0
 s    5 1.00
          2266.1767785  -0.0053893503921743
          340.87010191   -0.04023472138896
          77.363135167   -0.18008184205526
           21.47964494   -0.46828857657651
          6.6589433124   -0.44692617160187
 s    1 1.00
         0.80975975668                   1
 s    1 1.00
         0.25530772234                   1
 p    3 1.00
          17.721504317   0.062630248763161
           3.863550544    0.33331138482352
          1.0480920883    0.74148638308122
 p    1 1.00
         0.27641544411                   1
 d    1 1.00
                   1.2                   1

3 0
 s    6 1.00
          60923.640643  0.0017552243692958
          9147.8893982   0.013449023284001
          2081.3505927   0.066678874640978
          587.55977067    0.23176348548844
           191.0904399    0.46945550248188
          65.732730112     0.3596824938678
 s    3 1.00
          127.25891928   -0.10723431835929
           14.83091301    0.62971616328466
          6.0653307408    0.44472317896179
 s    3 1.00
           10.44994371   -0.21694289195548
          1.7245228003    0.69457867408393
         0.71772177325    0.43298308896347
 s    1 1.00
        0.091449828308                   1
 s    1 1.00
        0.033706691021                   1
 p    5 1.00
          773.43750995  0.0091440529992506
          182.15149714   0.067887577136571
          57.547272758    0.26167978878504
          20.614988935    0.51088040113251
           7.634855789    0.33235475570224
 p    3 1.00
           3.871932799    0.33193859098144
          1.4924724132     0.5553666555499
         0.56061284958    0.23106034201617
 p    1 1.00
              0.134915                   1
 d    4 1.00
          38.968133419   0.033335938558743
          10.800067078    0.17766212505983
          3.6136457999      0.441281781625
          1.2129967888    0.57089200490673
 d    1 1.00
          0.3652439317                   1
 f    1 1.00
                 1.598                   1

4 0
 s    5 1.00
          10449.827566  0.0054265953789407
          1571.7365221   0.040626378128836
          357.12065523    0.18359747852877
          100.25185935    0.47438948768198
          30.812727554    0.43735181104122
 s    3 1.00
          51.923789434  -0.092754154848099
          5.7045760975    0.56380825544207
          2.3508376809    0.50367044629712
 s    1 1.00
         0.44605124672                   1
 s    1 1.00
          0.1684885619                   1
 p    5 1.00
          307.66790569  -0.0088797025588865
          72.102015515  -0.064284071721237
          22.532680262   -0.24288739736006
          7.8991765444   -0.48340836369878
          2.8767268321   -0.38952563875509
 p    1 1.00
         0.77459363955                   1
 p    1 1.00
         0.21037699698                   1
 d    1 1.00
                  0.65                   1

5 0
 s    5 1.00
          10449.827566  0.0054265953789407
          1571.7365221   0.040626378128836
          357.12065523    0.18359747852877
          100.25185935    0.47438948768198
          30.812727554    0.43735181104122
 s    3 1.00
          51.923789434  -0.092754154848099
          5.7045760975    0.56380825544207
          2.3508376809    0.50367044629712
 s    1 1.00
         0.44605124672                   1
 s    1 1.00
          0.1684885619                   1
 p    5 1.00
          307.66790569  -0.0088797025588865
          72.102015515  -0.064284071721237
          22.532680262   -0.24288739736006
          7.8991765444   -0.48340836369878
          2.8767268321   -0.38952563875509
 p    1 1.00
         0.77459363955                   1
 p    1 1.00
         0.21037699698                   1
 d    1 1.00
                  0.65                   1

6 0
 s    5 1.00
          10449.827566  0.0054265953789407
          1571.7365221   0.040626378128836
          357.12065523    0.18359747852877
          100.25185935    0.47438948768198
          30.812727554    0.43735181104122
 s    3 1.00
          51.923789434  -0.092754154848099
          5.7045760975    0.56380825544207
          2.3508376809    0.50367044629712
 s    1 1.00
         0.44605124672                   1
 s    1 1.00
          0.1684885619                   1
 p    5 1.00
          307.66790569  -0.0088797025588865
          72.102015515  -0.064284071721237
          22.532680262   -0.24288739736006
          7.8991765444   -0.48340836369878
          2.8767268321   -0.38952563875509
 p    1 1.00
         0.77459363955                   1
 p    1 1.00
         0.21037699698                   1
 d    1 1.00
                  0.65                   1

7 0
 s    5 1.00
          10449.827566  0.0054265953789407
          1571.7365221   0.040626378128836
          357.12065523    0.18359747852877
          100.25185935    0.47438948768198
          30.812727554    0.43735181104122
 s    3 1.00
          51.923789434  -0.092754154848099
          5.7045760975    0.56380825544207
          2.3508376809    0.50367044629712
 s    1 1.00
         0.44605124672                   1
 s    1 1.00
          0.1684885619                   1
 p    5 1.00
          307.66790569  -0.0088797025588865
          72.102015515  -0.064284071721237
          22.532680262   -0.24288739736006
          7.8991765444   -0.48340836369878
          2.8767268321   -0.38952563875509
 p    1 1.00
         0.77459363955                   1
 p    1 1.00
         0.21037699698                   1
 d    1 1.00
                  0.65                   1

8 0
 s    5 1.00
          10449.827566  0.0054265953789407
          1571.7365221   0.040626378128836
          357.12065523    0.18359747852877
          100.25185935    0.47438948768198
          30.812727554    0.43735181104122
 s    3 1.00
          51.923789434  -0.092754154848099
          5.7045760975    0.56380825544207
          2.3508376809    0.50367044629712
 s    1 1.00
         0.44605124672                   1
 s    1 1.00
          0.1684885619                   1
 p    5 1.00
          307.66790569  -0.0088797025588865
          72.102015515  -0.064284071721237
          22.532680262   -0.24288739736006
          7.8991765444   -0.48340836369878
          2.8767268321   -0.38952563875509
 p    1 1.00
         0.77459363955                   1
 p    1 1.00
         0.21037699698                   1
 d    1 1.00
                  0.65                   1

9 0
 s    5 1.00
          10449.827566  0.0054265953789407
          1571.7365221   0.040626378128836
          357.12065523    0.18359747852877
          100.25185935    0.47438948768198
          30.812727554    0.43735181104122
 s    3 1.00
          51.923789434  -0.092754154848099
          5.7045760975    0.56380825544207
          2.3508376809    0.50367044629712
 s    1 1.00
         0.44605124672                   1
 s    1 1.00
          0.1684885619                   1
 p    5 1.00
          307.66790569  -0.0088797025588865
          72.102015515  -0.064284071721237
          22.532680262   -0.24288739736006
          7.8991765444   -0.48340836369878
          2.8767268321   -0.38952563875509
 p    1 1.00
         0.77459363955                   1
 p    1 1.00
         0.21037699698                   1
 d    1 1.00
                  0.65                   1

[5d]
[7f]
[9g]

[MO]
 Sym= B
 Ene=               0
 Spin= Alpha
 Occup=    1.00000
   1    0.00013702489832403
   2    -0.00026177319952741
   3    0.0024254487922309
   4    -0.0092537670695315
   5    -0.0041275205070842
   6    -0.00059024266634915
   7    0.0048413945685197
   8    -4.3520458636735e-05
   9    0.0019741131534966
  10    -0.016651165826206
  11    0.00021721611015533
  12    0.0036666110679081
  13     0.098709282967856
  14    -0.001173339970776
  15    0.0095401087322496
  16    -0.0074318781653698
  17    -0.028526667273727
  18    0.0011509854100138
  19     -0.11135360873169
  20    0.0023201170956944
  21    -0.0034763856312096
  22    -0.017751090269954
  23    -8.3041380335955e-05
  24    -0.071139847996972
  25    -0.00012786335190814
  26    -1.1318709516274e-05
  27    -0.00073503603807769
  28    9.9582768698978e-05
  29    0.0019608029624205
  30    0.00021383035597502
  31    0.0040497815168477
  32    -4.6155262295924e-15
  33    -1.5272275773405e-14
  34    -1.1822147227309e-14
  35    -0.023545428094681
  36      0.55509977611755
  37    1.6414424609377e-13
  38    -0.020890351492433
  39      0.47705264898228
  40    1.4080994703141e-13
  41    3.7473446642734e-15
  42    -0.0005464146935475
  43     0.011375587245574
  44    1.7257506979033e-16
  45    3.5197344417263e-17
  46    -0.00013702489832489
  47    0.00026177319952953
  48    -0.0024254487922441
  49    0.0092537670695599
  50    0.0041275205070661
  51    -0.00059024266634897
  52    0.0048413945685195
  53    4.3520458639729e-05
  54    0.0019741131534958
  55    -0.016651165826205
  56    -0.00021721611016559
  57    0.0036666110679423
  58     0.098709282967858
  59      0.00117333997083
  60    -0.0095401087322942
  61    -0.0074318781653333
  62    -0.028526667273733
  63    -0.0011509854099689
  64      0.11135360873169
  65    -0.0023201170957192
  66    -0.0034763856311825
  67    -0.017751090269956
  68    8.3041380359853e-05
  69     0.071139847996971
  70    0.00012786335190755
  71    -1.1318709518391e-05
  72    -0.00073503603807786
  73    -9.9582768698004e-05
  74    -0.0019608029624205
  75    0.00021383035597639
  76    0.0040497815168477
  77    0.00049035566205583
  78    -0.0033030366648346
  79    0.0039629486763789
  80     0.018233005042037
  81    -0.0013585514752779
  82    -0.00093867903291337
  83    -0.0026837827921006
  84    -0.0033202183070841
  85    -0.001247718741875
  86    -0.0040518413640476
  87    -0.0021728419369109
  88    -0.0030068459905647
  89    -0.019777985573559
  90    0.00037466588545188
  91    -0.0023869204274588
  92    -0.00085424811163575
  93    -0.0010555394307649
  94    2.0756132678658e-06
  95    0.00046300590930796
  96    -0.0031100261049114
  97    0.0044382189526479
  98     0.014520690067406
  99    -0.0021907735951585
 100    -0.00030567221654515
 101    0.0017679510341852
 102    -0.0042389830641227
 103    0.00019179542518419
 104    0.0023152071428559
 105    -0.010310156693338
 106    -0.0044414591581894
 107     0.013365757727895
 108    0.0019777552830771
 109    0.00019179214608158
 110    0.00026669013819914
 111    -0.0013860300082492
 112    -0.00025598446266207
 113    -0.00059486836163962
 114    0.0041234991825584
 115    -0.0066702071436935
 116    -0.019494745100419
 117    0.0026304278725832
 118    0.0014387926932561
 119    -0.00076967902517305
 120    0.0059188105844593
 121    0.0017434659091538
 122    -0.00048188564650272
 123    0.0088513256956881
 124     0.018113390889602
 125    -0.0090396858152838
 126    -0.0015206301639918
 127    8.5035806492789e-06
 128    0.0016063432808915
 129    0.0038123393973778
 130    0.0033014900764342
 131    -0.00049035566205679
 132    0.0033030366648411
 133    -0.0039629486763919
 134    -0.018233005042049
 135    -0.0013585514752803
 136    -0.00093867903291055
 137    0.0026837827921042
 138    -0.003320218307089
 139    -0.0012477187418702
 140    0.0040518413640545
 141    -0.0021728419369181
 142    -0.0030068459905505
 143     0.019777985573575
 144    -0.00037466588545266
 145    -0.0023869204274606
 146    -0.00085424811163632
 147    0.0010555394307663
 148    -2.0756132689601e-06
 149    -0.00046300590930817
 150    0.0031100261049128
 151    -0.0044382189526543
 152     -0.01452069006739
 153    -0.0021907735951588
 154    -0.00030567221654489
 155    -0.0017679510341866
 156    -0.0042389830641231
 157    0.00019179542518549
 158    -0.0023152071428592
 159    -0.010310156693335
 160    -0.004441459158195
 161    -0.013365757727893
 162    -0.001977755283076
 163    0.00019179214608179
 164    0.00026669013819833
 165    0.0013860300082479
 166    0.00025598446266252
 167    0.0005948683616393
 168    -0.0041234991825556
 169    0.0066702071436852
 170     0.019494745100426
 171    0.0026304278725822
 172    0.0014387926932541
 173    0.0007696790251711
 174    0.0059188105844576
 175    0.0017434659091491
 176    0.00048188564649935
 177    0.0088513256956845
 178     0.018113390889602
 179    0.0090396858152763
 180    0.0015206301639917
 181    8.5035806499608e-06
 182    0.0016063432808919
 183    -0.0038123393973781
 184    -0.0033014900764348
 Sym= A
 Ene=               1
 Spin= Alpha
 Occup=    1.00000
   1    -0.0014268614248682
   2    0.0035501822038471
   3      -0.0219616495122
   4     0.047347263434262
   5    -0.030176487806185
   6    -0.00030180821321588
   7    0.00030473174953041
   8    0.0049929219080468
   9    0.0013291694894768
  10    -0.00090789012545984
  11    -0.017103395292158
  12     -0.05703302138204
  13    -0.0023172066225825
  14     0.089983216140187
  15    -0.074124564442782
  16    -0.060727385848436
  17     0.010152633289947
  18     0.075171809985357
  19    -0.0028290323660416
  20    -0.041310552803631
  21    -0.045128930812315
  22    0.0026437232401793
  23     0.039930265902723
  24    -0.0013197310753845
  25    -0.00098432310361478
  26    0.0035287361807376
  27    0.00027367447636188
  28    0.0016245872719994
  29    3.5740992480019e-06
  30    -0.0022760822350667
  31    3.9498627809396e-05
  32    -0.015414209238838
  33    -0.050977057508586
  34    -0.039491531478037
  35    1.6293282281377e-15
  36    -1.6682494455166e-13
  37       0.5473519931363
  38    1.9799015367842e-15
  39    -1.4339313663523e-13
  40      0.46932563847233
  41     0.012492345502452
  42    2.2377033499634e-17
  43    -3.4199805370343e-15
  44    0.00057723170981576
  45    0.00011818816474262
  46    -0.0014268614248682
  47    0.0035501822038472
  48      -0.0219616495122
  49     0.047347263434258
  50    -0.030176487806188
  51    0.00030180821321614
  52    -0.00030473174953331
  53    0.0049929219080468
  54    -0.0013291694894777
  55    0.00090789012546999
  56    -0.017103395292159
  57      0.05703302138204
  58    0.0023172066225233
  59     0.089983216140186
  60    -0.074124564442777
  61     0.060727385848438
  62     -0.01015263328993
  63      0.07517180998536
  64    -0.0028290323661085
  65     -0.04131055280363
  66     0.045128930812316
  67    -0.0026437232401687
  68     0.039930265902725
  69    -0.0013197310754272
  70    -0.0009843231036148
  71    -0.0035287361807376
  72    -0.00027367447636145
  73    0.0016245872719994
  74    3.5740992491786e-06
  75    0.0022760822350667
  76    -3.9498627811834e-05
  77    -0.0015715296326764
  78     0.010837872262685
  79    -0.021676448626112
  80    -0.021075138440519
  81    0.0039476081412327
  82    -0.0047475606628372
  83    0.0059787670056017
  84    0.0080281985178723
  85    -0.0080307429046037
  86     0.011440332205031
  87     0.012072511563301
  88    -0.023842519943428
  89     0.026593444485212
  90    -0.0012959844102871
  91    0.0030392462091299
  92    0.00094447072341994
  93    0.0022833381706958
  94    -0.0018230794142504
  95    -0.00033190876736892
  96    0.0024881362066535
  97     -0.01082052407703
  98     0.025626360380706
  99    0.0003557975090065
 100    -0.00045577947058617
 101    -0.002371753953754
 102    0.00076791646546158
 103    -0.0021871400178338
 104    -0.0055296044174601
 105    -0.0052622505077278
 106    0.0091620865268562
 107    0.0018631671315922
 108    0.0017580105740996
 109    -0.00034224927755791
 110    0.0013422030777463
 111    -0.0021406504648082
 112    0.00076319278503045
 113    -0.00067071833851386
 114    0.0047250600748683
 115    -0.013835849132684
 116     0.012394491221399
 117    0.0016562178048664
 118    0.0033615746647489
 119    -0.0032337140447052
 120    0.0026733677908212
 121    0.0076671274198871
 122    -0.0055464263474894
 123    0.0060379484276859
 124    -0.00053754586897055
 125    -0.012421246854204
 126    -0.00024162974323505
 127    -0.0011366042034159
 128    -0.0006523734839697
 129    -0.00043717912082365
 130    -0.00093677346812834
 131    -0.0015715296326762
 132     0.010837872262683
 133     -0.02167644862611
 134    -0.021075138440509
 135    -0.0039476081412318
 136    0.0047475606628379
 137    0.0059787670056003
 138    -0.0080281985178703
 139    0.0080307429046047
 140     0.011440332205029
 141    -0.012072511563299
 142     0.023842519943431
 143     0.026593444485201
 144    -0.0012959844102869
 145    -0.0030392462091285
 146    -0.00094447072341943
 147    0.0022833381706952
 148    -0.0018230794142504
 149    -0.00033190876736867
 150     0.002488136206652
 151    -0.010820524077028
 152     0.025626360380714
 153    -0.00035579750900531
 154    0.00045577947058646
 155    -0.0023717539537531
 156    -0.00076791646545928
 157    0.0021871400178339
 158    -0.005529604417459
 159    0.0052622505077337
 160    -0.0091620865268533
 161    0.0018631671315999
 162    0.0017580105741007
 163    0.0003422492775578
 164    -0.0013422030777465
 165    -0.002140650464809
 166    0.00076319278503028
 167    -0.00067071833851426
 168    0.0047250600748711
 169    -0.013835849132689
 170     0.012394491221387
 171    -0.0016562178048681
 172     -0.00336157466475
 173    -0.0032337140447057
 174    -0.002673367790825
 175    -0.0076671274198886
 176    -0.0055464263474899
 177    -0.0060379484276916
 178    0.00053754586895906
 179    -0.012421246854209
 180    -0.00024162974323599
 181    0.0011366042034159
 182    0.00065237348396872
 183    -0.00043717912082133
 184    -0.00093677346812631
 Sym= B
 Ene=               2
 Spin= Alpha
 Occup=    1.00000
   1    -0.003854385405202
   2    0.0092577618660302
   3    -0.060667088807789
   4     0.096528691917692
   5    -0.011770205242055
   6    0.0044130659203487
   7    0.00044050926621822
   8    0.0031326066526717
   9    -0.014440915339377
  10    -0.001414070258429
  11    -0.010057578559017
  12    -0.084502677848637
  13    0.0027890989280506
  14    -0.019215356527953
  15    -0.052496146005807
  16     0.099576948311418
  17    0.0035567461010653
  18      0.12701966186251
  19    -0.0047382339238475
  20    -0.025238752161366
  21     0.047621441791217
  22    0.0013529050364689
  23     0.060374666267616
  24    -0.0027584854033095
  25    0.0025682405682268
  26    0.0013837456222877
  27    0.00048620842006134
  28    -0.0039257212546691
  29    -3.6165317023397e-05
  30    -0.0040800486527493
  31    0.00039912254056928
  32    -1.6918831193084e-16
  33    -5.5814251869068e-16
  34    -4.3958841453661e-16
  35      0.51961374293302
  36     0.028932166178792
  37    5.9609002699423e-15
  38      0.42506075461608
  39     0.024414590934572
  40    5.1348081536768e-15
  41    1.3615463312497e-16
  42     0.013727603608862
  43    0.00069205550844193
  44    6.2975345025936e-18
  45    1.6020837998157e-18
  46    0.0038543854052019
  47    -0.0092577618660302
  48     0.060667088807789
  49    -0.096528691917691
  50     0.011770205242054
  51    0.0044130659203488
  52    0.00044050926621821
  53    -0.0031326066526716
  54    -0.014440915339377
  55    -0.001414070258429
  56     0.010057578559017
  57    -0.084502677848636
  58    0.0027890989280506
  59     0.019215356527955
  60     0.052496146005805
  61      0.09957694831142
  62    0.0035567461010653
  63      -0.1270196618625
  64    0.0047382339238474
  65     0.025238752161365
  66     0.047621441791219
  67    0.0013529050364689
  68    -0.060374666267615
  69    0.0027584854033095
  70    -0.0025682405682268
  71    0.0013837456222876
  72    0.00048620842006134
  73    0.0039257212546691
  74    3.6165317023396e-05
  75    -0.0040800486527492
  76    0.00039912254056928
  77    -0.0023918307086474
  78      0.01647225722644
  79    -0.032234408505298
  80    -0.025659443377033
  81    -0.00079521208998567
  82    -0.0069071015963871
  83     0.010410011748241
  84    -0.0015367973757516
  85    -0.013536673289117
  86     0.021069599440185
  87    0.0032951051713831
  88    -0.021434150061321
  89     0.032791306336914
  90    -0.00055062109176394
  91    0.00043962787265117
  92    0.00064342361425681
  93    0.00062297739806927
  94    1.2310912384713e-05
  95    -0.0025384719847954
  96     0.017679890842209
  97    -0.039256856857987
  98    -0.014400049709802
  99    0.0065722151417855
 100    -0.0045013513717991
 101    -0.0087211566297197
 102     0.014097048855343
 103    -0.010086913130498
 104    -0.018250946922505
 105      0.02000845799088
 106    -0.010154377914829
 107    -0.020756653422443
 108    -0.0014309053662834
 109    9.0890874275739e-05
 110    -0.00026097979146735
 111    0.0019897785748358
 112    -0.00073360114291478
 113    -0.0023978867074537
 114     0.016627941854456
 115    -0.035027741797807
 116    -0.020724450989787
 117    0.0030460037556694
 118     0.010618954099332
 119    -0.0046807288218436
 120    0.0061141228245429
 121     0.022228236365583
 122    -0.0087700532570689
 123     0.014438114538587
 124      0.03004400667189
 125    -0.013226370126915
 126    -0.0011145505133195
 127    0.00058038691927273
 128    0.0009104342288377
 129    0.0016638703490005
 130    0.0021839066589349
 131    0.0023918307086474
 132    -0.016472257226439
 133     0.032234408505298
 134     0.025659443377033
 135    -0.00079521208998576
 136    -0.006907101596387
 137    -0.010410011748241
 138    -0.0015367973757518
 139    -0.013536673289117
 140    -0.021069599440185
 141    0.0032951051713828
 142     -0.02143415006132
 143    -0.032791306336914
 144    0.00055062109176391
 145    0.0004396278726511
 146    0.00064342361425679
 147    -0.00062297739806922
 148    -1.2310912384753e-05
 149    0.0025384719847954
 150    -0.017679890842209
 151     0.039256856857987
 152     0.014400049709802
 153    0.0065722151417856
 154    -0.0045013513717991
 155    0.0087211566297197
 156     0.014097048855343
 157    -0.010086913130498
 158     0.018250946922505
 159      0.02000845799088
 160     -0.01015437791483
 161     0.020756653422443
 162    0.0014309053662834
 163    9.0890874275746e-05
 164    -0.00026097979146738
 165    -0.0019897785748359
 166    0.0007336011429148
 167    0.0023978867074537
 168    -0.016627941854456
 169     0.035027741797806
 170     0.020724450989788
 171    0.0030460037556694
 172     0.010618954099331
 173    0.0046807288218436
 174    0.0061141228245428
 175     0.022228236365583
 176    0.0087700532570688
 177     0.014438114538587
 178      0.03004400667189
 179     0.013226370126914
 180    0.0011145505133195
 181    0.00058038691927276
 182    0.00091043422883771
 183    -0.0016638703490005
 184    -0.0021839066589349
 Sym= B
 Ene=               3
 Spin= Alpha
 Occup=    1.00000
   1    0.00013597370190287
   2    -0.00043871507951743
   3    0.0017062039540888
   4    0.0044375594537524
   5    0.0011961128534608
   6    0.00075315173569678
   7     0.012532087217671
   8    0.00071390475195606
   9    -0.0025694720656527
  10    -0.039245114185364
  11    -0.0022930734089619
  12    -0.0005155248763877
  13    -0.011629424913872
  14    0.00072741909001721
  15    -0.0056076329925838
  16    0.0022170771282571
  17      0.01963982245005
  18    -0.0046303140458526
  19     0.077901426035569
  20    0.00072329134789059
  21    -0.00023831456301855
  22    0.00035483280548758
  23    0.00056302387694266
  24    0.00014140016042859
  25    -3.4966500202606e-05
  26    5.4009277445318e-05
  27    -5.5320632062914e-05
  28    -0.00014598376265652
  29    0.00013589693863341
  30    4.0877732035435e-05
  31    0.00017284790475762
  32    -3.1296813117429e-17
  33    -8.758144697534e-17
  34    -1.3648580352962e-16
  35     0.020894385242413
  36      -1.0114724306707
  37    -1.0192081294081e-15
  38    -0.019512985809784
  39       1.0097593160534
  40    1.0404705169724e-15
  41    7.284364606133e-19
  42    3.3564649984925e-05
  43    -6.6428660847979e-05
  44    -1.2294000565851e-17
  45    6.7257005636069e-18
  46    -0.00013597370190289
  47    0.00043871507951748
  48    -0.0017062039540892
  49    -0.0044375594537517
  50    -0.0011961128534607
  51    0.00075315173569682
  52     0.012532087217671
  53    -0.00071390475195604
  54    -0.0025694720656528
  55    -0.039245114185364
  56    0.0022930734089618
  57    -0.00051552487638764
  58    -0.011629424913871
  59    -0.0007274190900169
  60    0.0056076329925841
  61     0.002217077128257
  62      0.01963982245005
  63    0.0046303140458523
  64    -0.077901426035569
  65    -0.00072329134789019
  66    -0.00023831456301877
  67    0.00035483280548749
  68    -0.00056302387694238
  69    -0.00014140016042859
  70    3.4966500202603e-05
  71    5.4009277445314e-05
  72    -5.5320632062918e-05
  73    0.00014598376265653
  74    -0.00013589693863341
  75    4.0877732035431e-05
  76    0.00017284790475762
  77    0.00055937967882943
  78    -0.0035274050724258
  79    0.0045454452842548
  80    0.0009577616214843
  81    -0.0040600626144614
  82    -0.0011271545132055
  83    -0.0056621898997833
  84    -0.0069183604920885
  85    -0.0019810571772093
  86    -0.0095573134947855
  87    -0.010426575909559
  88    -0.0030289918615265
  89    -0.013137542518517
  90    0.00073738792761844
  91    0.00029896296878098
  92    -0.00031747206255928
  93    3.8239745007832e-05
  94    -0.00018341956109915
  95    0.00062423971085382
  96    -0.0039433404066824
  97    0.0049696208511014
  98    0.0020332979281881
  99    -0.0066093808434974
 100    -0.00073439946235666
 101    0.0028677201154342
 102     -0.01124994354746
 103    -0.0013833700544518
 104    0.0047968814672343
 105    -0.016286090220819
 106    -0.0013566155893328
 107    0.0064360101484041
 108    0.00025368988227985
 109    -0.00072163940171104
 110    0.0001145895490351
 111    0.00039003587667224
 112    -0.00014807501319936
 113     -0.00166619547038
 114     0.010703136558679
 115    -0.015047507094113
 116    -0.0062122211254257
 117     0.012457211074724
 118    0.0085259618244666
 119    -0.0012873477582663
 120     0.021475036450759
 121     0.014755688188109
 122    -0.0021586955341121
 123     0.031556675925886
 124     0.020256805218354
 125    -0.0027067125933934
 126    0.00059278463578106
 127    0.00052592649755499
 128    0.00077780854486503
 129    0.00088784250450159
 130    -0.001190191700086
 131    -0.00055937967882943
 132    0.0035274050724258
 133    -0.0045454452842545
 134    -0.00095776162148503
 135    -0.0040600626144615
 136    -0.0011271545132055
 137    0.0056621898997833
 138    -0.0069183604920885
 139    -0.0019810571772093
 140    0.0095573134947854
 141     -0.01042657590956
 142    -0.0030289918615262
 143     0.013137542518517
 144    -0.00073738792761851
 145    0.00029896296878102
 146    -0.00031747206255931
 147    -3.823974500785e-05
 148    0.00018341956109916
 149    -0.00062423971085382
 150    0.0039433404066824
 151    -0.0049696208511015
 152    -0.0020332979281883
 153    -0.0066093808434974
 154    -0.00073439946235663
 155    -0.0028677201154342
 156     -0.01124994354746
 157    -0.0013833700544518
 158    -0.0047968814672342
 159    -0.016286090220819
 160    -0.0013566155893327
 161    -0.0064360101484042
 162    -0.00025368988227989
 163    -0.00072163940171106
 164    0.00011458954903513
 165    -0.00039003587667227
 166    0.00014807501319937
 167    0.0016661954703799
 168    -0.010703136558679
 169     0.015047507094112
 170    0.0062122211254261
 171     0.012457211074724
 172    0.0085259618244666
 173    0.0012873477582663
 174     0.021475036450759
 175     0.014755688188109
 176    0.0021586955341121
 177     0.031556675925886
 178     0.020256805218354
 179    0.0027067125933933
 180    -0.00059278463578108
 181    0.00052592649755499
 182    0.00077780854486504