[Molden Format]
made by pyscf v[2.1.1]
[Atoms] (AU)
Fe   1   26     3.17068844873907     0.00098706064664     0.12237737881307
O   2   8     0.00000000000000     0.00000000000000    -0.89004350580623
Fe   3   26    -3.17068844873907    -0.00098706064664     0.12237737881307
Cl   4   17     3.53383895113107    -2.07485195383062     3.76228752659000
Cl   5   17     5.54152580550813    -1.85590924879884    -2.78672786652360
Cl   6   17     4.48169216485503     3.92976278472880    -0.95330240907949
Cl   7   17    -3.53383895113107     2.07485195383062     3.76228752659000
Cl   8   17    -5.54152580550813     1.85590924879884    -2.78672786652360
Cl   9   17    -4.48169216485503    -3.92976278472880    -0.95330240907949
[GTO]
1 0
 s    6 1.00
          60923.640643  0.0017552243692958
          9147.8893982   0.013449023284001
          2081.3505927   0.066678874640978
          587.55977067    0.23176348548844
           191.0904399    0.46945550248188
          65.732730112     0.3596824938678
 s    3 1.00
          127.25891928   -0.10723431835929
           14.83091301    0.62971616328466
          6.0653307408    0.44472317896179
 s    3 1.00
           10.44994371   -0.21694289195548
          1.7245228003    0.69457867408393
         0.71772177325    0.43298308896347
 s    1 1.00
        0.091449828308                   1
 s    1 1.00
        0.033706691021                   1
 p    5 1.00
          773.43750995  0.0091440529992506
          182.15149714   0.067887577136571
          57.547272758    0.26167978878504
          20.614988935    0.51088040113251
           7.634855789    0.33235475570224
 p    3 1.00
           3.871932799    0.33193859098144
          1.4924724132     0.5553666555499
         0.56061284958    0.23106034201617
 p    1 1.00
              0.134915                   1
 d    4 1.00
          38.968133419   0.033335938558743
          10.800067078    0.17766212505983
          3.6136457999      0.441281781625
          1.2129967888    0.57089200490673
 d    1 1.00
          0.3652439317                   1
 f    1 1.00
                 1.598                   1

2 0
 s    5 1.00
          2266.1767785  -0.0053893503921743
          340.87010191   -0.04023472138896
          77.363135167   -0.18008184205526
           21.47964494   -0.46828857657651
          6.6589433124   -0.44692617160187
 s    1 1.00
         0.80975975668                   1
 s    1 1.00
         0.25530772234                   1
 p    3 1.00
          17.721504317   0.062630248763161
           3.863550544    0.33331138482352
          1.0480920883    0.74148638308122
 p    1 1.00
         0.27641544411                   1
 d    1 1.00
                   1.2                   1

3 0
 s    6 1.00
          60923.640643  0.0017552243692958
          9147.8893982   0.013449023284001
          2081.3505927   0.066678874640978
          587.55977067    0.23176348548844
           191.0904399    0.46945550248188
          65.732730112     0.3596824938678
 s    3 1.00
          127.25891928   -0.10723431835929
           14.83091301    0.62971616328466
          6.0653307408    0.44472317896179
 s    3 1.00
           10.44994371   -0.21694289195548
          1.7245228003    0.69457867408393
         0.71772177325    0.43298308896347
 s    1 1.00
        0.091449828308                   1
 s    1 1.00
        0.033706691021                   1
 p    5 1.00
          773.43750995  0.0091440529992506
          182.15149714   0.067887577136571
          57.547272758    0.26167978878504
          20.614988935    0.51088040113251
           7.634855789    0.33235475570224
 p    3 1.00
           3.871932799    0.33193859098144
          1.4924724132     0.5553666555499
         0.56061284958    0.23106034201617
 p    1 1.00
              0.134915                   1
 d    4 1.00
          38.968133419   0.033335938558743
          10.800067078    0.17766212505983
          3.6136457999      0.441281781625
          1.2129967888    0.57089200490673
 d    1 1.00
          0.3652439317                   1
 f    1 1.00
                 1.598                   1

4 0
 s    5 1.00
          10449.827566  0.0054265953789407
          1571.7365221   0.040626378128836
          357.12065523    0.18359747852877
          100.25185935    0.47438948768198
          30.812727554    0.43735181104122
 s    3 1.00
          51.923789434  -0.092754154848099
          5.7045760975    0.56380825544207
          2.3508376809    0.50367044629712
 s    1 1.00
         0.44605124672                   1
 s    1 1.00
          0.1684885619                   1
 p    5 1.00
          307.66790569  -0.0088797025588865
          72.102015515  -0.064284071721237
          22.532680262   -0.24288739736006
          7.8991765444   -0.48340836369878
          2.8767268321   -0.38952563875509
 p    1 1.00
         0.77459363955                   1
 p    1 1.00
         0.21037699698                   1
 d    1 1.00
                  0.65                   1

5 0
 s    5 1.00
          10449.827566  0.0054265953789407
          1571.7365221   0.040626378128836
          357.12065523    0.18359747852877
          100.25185935    0.47438948768198
          30.812727554    0.43735181104122
 s    3 1.00
          51.923789434  -0.092754154848099
          5.7045760975    0.56380825544207
          2.3508376809    0.50367044629712
 s    1 1.00
         0.44605124672                   1
 s    1 1.00
          0.1684885619                   1
 p    5 1.00
          307.66790569  -0.0088797025588865
          72.102015515  -0.064284071721237
          22.532680262   -0.24288739736006
          7.8991765444   -0.48340836369878
          2.8767268321   -0.38952563875509
 p    1 1.00
         0.77459363955                   1
 p    1 1.00
         0.21037699698                   1
 d    1 1.00
                  0.65                   1

6 0
 s    5 1.00
          10449.827566  0.0054265953789407
          1571.7365221   0.040626378128836
          357.12065523    0.18359747852877
          100.25185935    0.47438948768198
          30.812727554    0.43735181104122
 s    3 1.00
          51.923789434  -0.092754154848099
          5.7045760975    0.56380825544207
          2.3508376809    0.50367044629712
 s    1 1.00
         0.44605124672                   1
 s    1 1.00
          0.1684885619                   1
 p    5 1.00
          307.66790569  -0.0088797025588865
          72.102015515  -0.064284071721237
          22.532680262   -0.24288739736006
          7.8991765444   -0.48340836369878
          2.8767268321   -0.38952563875509
 p    1 1.00
         0.77459363955                   1
 p    1 1.00
         0.21037699698                   1
 d    1 1.00
                  0.65                   1

7 0
 s    5 1.00
          10449.827566  0.0054265953789407
          1571.7365221   0.040626378128836
          357.12065523    0.18359747852877
          100.25185935    0.47438948768198
          30.812727554    0.43735181104122
 s    3 1.00
          51.923789434  -0.092754154848099
          5.7045760975    0.56380825544207
          2.3508376809    0.50367044629712
 s    1 1.00
         0.44605124672                   1
 s    1 1.00
          0.1684885619                   1
 p    5 1.00
          307.66790569  -0.0088797025588865
          72.102015515  -0.064284071721237
          22.532680262   -0.24288739736006
          7.8991765444   -0.48340836369878
          2.8767268321   -0.38952563875509
 p    1 1.00
         0.77459363955                   1
 p    1 1.00
         0.21037699698                   1
 d    1 1.00
                  0.65                   1

8 0
 s    5 1.00
          10449.827566  0.0054265953789407
          1571.7365221   0.040626378128836
          357.12065523    0.18359747852877
          100.25185935    0.47438948768198
          30.812727554    0.43735181104122
 s    3 1.00
          51.923789434  -0.092754154848099
          5.7045760975    0.56380825544207
          2.3508376809    0.50367044629712
 s    1 1.00
         0.44605124672                   1
 s    1 1.00
          0.1684885619                   1
 p    5 1.00
          307.66790569  -0.0088797025588865
          72.102015515  -0.064284071721237
          22.532680262   -0.24288739736006
          7.8991765444   -0.48340836369878
          2.8767268321   -0.38952563875509
 p    1 1.00
         0.77459363955                   1
 p    1 1.00
         0.21037699698                   1
 d    1 1.00
                  0.65                   1

9 0
 s    5 1.00
          10449.827566  0.0054265953789407
          1571.7365221   0.040626378128836
          357.12065523    0.18359747852877
          100.25185935    0.47438948768198
          30.812727554    0.43735181104122
 s    3 1.00
          51.923789434  -0.092754154848099
          5.7045760975    0.56380825544207
          2.3508376809    0.50367044629712
 s    1 1.00
         0.44605124672                   1
 s    1 1.00
          0.1684885619                   1
 p    5 1.00
          307.66790569  -0.0088797025588865
          72.102015515  -0.064284071721237
          22.532680262   -0.24288739736006
          7.8991765444   -0.48340836369878
          2.8767268321   -0.38952563875509
 p    1 1.00
         0.77459363955                   1
 p    1 1.00
         0.21037699698                   1
 d    1 1.00
                  0.65                   1

[5d]
[7f]
[9g]

[MO]
 Sym= A
 Ene=               0
 Spin= Alpha
 Occup=    1.00000
   1     0.014312787774484
   2    -0.033837466849072
   3      0.22719121531432
   4      0.27083578440317
   5    -0.071785221281774
   6    -0.041620728388944
   7    -0.00090236774522479
   8    -0.016259164580258
   9      0.13823839617268
  10    0.0027708962685694
  11     0.053180650990263
  12     0.064831486927633
  13    0.00094638832436408
  14     0.024669324220178
  15    0.0086385541721491
  16    -0.0069870825390743
  17    -0.022638684724602
  18    -0.0063114963667601
  19    -0.0016714644723135
  20     0.011099907984129
  21    -0.012850560190012
  22    -0.015965658182129
  23    -0.016033452908154
  24    -0.001106721092941
  25    0.0021531729179902
  26    0.0013521767617148
  27    -0.0027733138530383
  28    -0.0014503532605446
  29    0.00038766471108456
  30    -0.0023412444829482
  31    -0.00087474947442595
  32      0.05560432386539
  33     0.096946494033347
  34      0.08108384351236
  35     0.070286552261748
  36    0.0029325605047816
  37     0.012852035694989
  38     0.079508822048565
  39    0.0014858007480732
  40     0.015822712131666
  41    -0.0015906375076517
  42    0.0031467031472629
  43    -8.5289458291328e-06
  44      0.00413910576767
  45    5.6037789170042e-05
  46    0.0054535410253109
  47    -0.018129964140199
  48     0.066160385450181
  49    0.0098558364142279
  50    0.0032526500146683
  51    -0.043454759859699
  52    -0.00049145871329718
  53     0.018625939058526
  54      0.14431525338019
  55    0.0015554614540085
  56    -0.060848778940368
  57     0.014394111600413
  58    -0.0036874203204355
  59    -0.015196276301262
  60    0.0048579269795101
  61     0.016375842015941
  62    0.0016934170166493
  63    -0.017735434101787
  64    0.0020931908134082
  65    0.0016225845472254
  66    0.0055748862012363
  67    -6.7864537986106e-05
  68    -0.0067196467175139
  69    0.0015938611683144
  70    -0.00011707589604909
  71    1.8150527818731e-05
  72    5.3119699243209e-05
  73    0.00024168668636824
  74    5.6264473046958e-05
  75    -2.6954844025107e-05
  76    6.6000090723792e-05
  77     0.015215756444555
  78     -0.10591165270417
  79      0.21678065934436
  80      0.12168881311002
  81    0.0021104615043944
  82     0.037190401899213
  83    -0.060309131887275
  84    0.0014469821282808
  85     0.078622102637372
  86     -0.13062361832615
  87    -0.00028738491502755
  88      0.10553164489359
  89     -0.17194852135677
  90     0.011898683516205
  91    0.0011285582568241
  92     -0.01491797402977
  93    -0.0045662615917497
  94    -0.00071104841714384
  95     0.012888624852257
  96    -0.089786101758991
  97      0.19157133695445
  98      0.10613127451947
  99    -0.023988529913182
 100     0.024873693972441
 101     0.044135597863579
 102    -0.054613383325258
 103     0.054906188083547
 104     0.093045561425442
 105    -0.074295351318065
 106     0.067629960532557
 107      0.12162190102558
 108    0.0052882974787127
 109    -0.011376770739275
 110    0.0095532614000797
 111    0.00081575204781606
 112    -0.0069303930121253
 113      0.01306536904709
 114      -0.0910583033573
 115      0.19071480427783
 116      0.10764812628194
 117    -0.011464096159227
 118    -0.054872359438699
 119     0.020047299648381
 120     -0.02740686591002
 121     -0.11900155438521
 122     0.039544503146786
 123    -0.039320864309551
 124     -0.15484363510662
 125      0.05705922319515
 126    -0.0059080775184358
 127    -0.002198015593385
 128    -0.007743497902574
 129    -0.011328916685637
 130    0.0067386012942229
 131    -0.00054215451263082
 132    0.0043438892888948
 133    -0.018880875347238
 134    -0.0023476255132016
 135     0.020714758818291
 136    0.0045747305610455
 137    -0.0011768074617045
 138     0.036544671320228
 139    0.0095823510954963
 140    0.00017935531515569
 141     0.057837004065587
 142     0.011969335739214
 143    -0.0031207125788471
 144    1.0275433041104e-05
 145    -0.0017946209229781
 146    -0.00044446636692806
 147    0.0004145529398518
 148     -0.00118666431496
 149    -0.0002915031000147
 150    0.0026732528767238
 151    -0.013685518617577
 152    -0.014005363971146
 153     0.015711780837196
 154    -0.0014173260760061
 155    -0.0053147711517616
 156     0.026031394030012
 157    -0.001830651668009
 158    -0.010743073837372
 159     0.037793514699172
 160    -0.00059797226691492
 161    -0.017288800856032
 162    -0.00087254463973848
 163    0.00056784585975913
 164    0.00032417592942153
 165    0.0002276487218577
 166    -0.00042158738701752
 167    0.00067676293005586
 168    -0.003898140320216
 169    -0.0038399289452202
 170    -0.004780435887884
 171     0.017805168286276
 172    0.0065311573587596
 173    -0.0060472254763692
 174     0.030544774006134
 175     0.010681950285581
 176     -0.01101630092422
 177     0.046619941391103
 178     0.013763869211901
 179    -0.015743561593442
 180    -0.00053448314562624
 181    0.00059536290548274
 182    -6.0012870370251e-05
 183    -0.00044447983808845
 184    0.0012672540998214
 Sym= A
 Ene=               1
 Spin= Alpha
 Occup=    1.00000
   1    -1.9351499158527e-05
   2    9.5901568237832e-05
   3    -8.9635983167078e-05
   4    -0.0033696844838411
   5    -0.0061516345254576
   6    0.00022550334091404
   7    -0.0020936338295783
   8    -0.0082199946317422
   9    -0.00065871740580331
  10    0.0064925312805504
  11     0.025971458416632
  12    0.0025221018942509
  13    -0.012286428807198
  14    -0.016875952136498
  15      0.39368692586079
  16      0.60327724607925
  17     -0.41297375716008
  18     -0.26764729017454
  19     0.018129406772096
  20      0.10162658719393
  21      0.15514720317066
  22     -0.10729028602115
  23    -0.068525862001623
  24    0.0036689758533069
  25    -0.00035356718092325
  26    0.0029018993247274
  27    -0.00033977442340839
  28     0.001126883960746
  29    3.1676195790537e-05
  30    -0.0010396386945497
  31    -0.00028971584590153
  32    -0.0016390232976487
  33    -0.0064303957264636
  34    0.0031142840792313
  35    -0.0087847072404261
  36    -0.010011651984035
  37      0.11335875217842
  38     -0.01014344703127
  39    -0.0092178052200068
  40      0.11251787706681
  41    0.0012075631128744
  42    -0.0027257897090967
  43    -0.0003338264381253
  44    0.00081531025215315
  45    0.0003468870819887
  46    -0.0010606142127861
  47    0.0031564884972068
  48    -0.014167210700968
  49     0.016659284350183
  50    -0.0068392517512022
  51     0.004968275468524
  52    -0.00041544246043581
  53    0.0022076432931792
  54    -0.015858812414901
  55    0.0013057777757198
  56    -0.0070745969962223
  57     0.015405182054658
  58    -0.0014569395565765
  59     0.021563170583321
  60    -0.0012549273297665
  61    0.0023126000022783
  62    -0.0011689120835664
  63    0.0012744412866347
  64    -0.00061983787282595
  65    -0.0026645669883181
  66    0.0055972481010978
  67    0.00018537504734875
  68    0.0014254323032984
  69    -0.00092620970955005
  70    -0.00012106564010459
  71    -0.00089892623448406
  72    -4.4619150200607e-05
  73    0.0002545101203687
  74    5.5407838218026e-05
  75    0.00061862267452802
  76    -9.4572602242358e-05
  77    -0.0042080299550254
  78     0.027632678420275
  79    -0.035866298211686
  80    -0.032364841926829
  81    -0.0082707400251974
  82    -0.019158804166114
  83     0.040217063230885
  84    -0.013761223689717
  85    -0.032677812266867
  86     0.069167054679058
  87    -0.023152930544625
  88    -0.058806868598441
  89       0.1207715763209
  90    0.00019242946314081
  91    -0.0010838189505767
  92    0.0010107982714776
  93    0.00044211659183246
  94    0.00094723361887449
  95     0.003856211073189
  96    -0.025266036837048
  97     0.032390664365505
  98     0.030370433195852
  99    -0.011996214679128
 100     0.018172326952065
 101     0.037483315234753
 102    -0.020889975051925
 103     0.031011940437763
 104     0.063918238495778
 105    -0.036784315922322
 106     0.054803018535343
 107      0.11020754996088
 108    -0.00036898598756701
 109    -0.0012244982236646
 110    0.00027300674707593
 111    0.0010785997549286
 112    -0.0015561100663271
 113    -0.00082574194180816
 114    0.0055055108450677
 115    -0.0095743929389451
 116    0.00077301543397466
 117    0.0091358504430602
 118    0.0075413162790706
 119     0.010329031528953
 120     0.015485682811457
 121     0.013247599493045
 122     0.017343452744538
 123     0.025284903703222
 124     0.020063832840192
 125     0.029684973870405
 126    -0.00055248263546856
 127    0.00065418073278229
 128      0.00156158301782
 129    -0.00035725051332864
 130    0.0010446017940144
 131    -0.00035967443883429
 132    0.0024125950546763
 133    -0.0035549375804617
 134    -0.0064549560184563
 135    -0.0017696634174434
 136    0.0013189745291417
 137    0.0015375738720944
 138    -0.0031980621868212
 139    0.0020696314690742
 140    0.0025944457786576
 141    -0.0054011497009083
 142    0.0068636886270406
 143    0.0076885814667783
 144    -6.6504454414902e-05
 145    -0.00071901425261259
 146    6.9012330479476e-05
 147    0.00026231691434549
 148    -0.00041106963918047
 149    0.0001632269787314
 150    -0.0010680349729659
 151    0.00061495890199537
 152    0.0075888825046691
 153    0.0022036173295436
 154    -4.1377249562521e-05
 155    -0.0014570939615082
 156    0.0038825373768761
 157    0.00011920027594858
 158    -0.0026203316834576
 159    0.0072549283811846
 160    -0.0028719232301963
 161    -0.0011008180588118
 162    0.00010183132211938
 163    0.00034028633395038
 164    -0.00014736601814755
 165    -0.00022845937674115
 166    -3.4183016804117e-05
 167    -8.2214538825225e-05
 168    0.00056743437922367
 169    -0.0016694255667703
 170     0.002443994452804
 171    -0.00039672881723914
 172    -0.00038492492843677
 173    -0.0017672985187902
 174    -0.00061840143295636
 175    -0.00083627414675537
 176    -0.0029176161758881
 177    -0.0017087537807235
 178    0.00060411852935846
 179    -0.0057683187827105
 180    -0.00017255852574754
 181    0.00031955854535088
 182    0.00010802997782832
 183    -2.4925571128739e-05
 184    0.00021923477830502
 Sym= A
 Ene=               2
 Spin= Alpha
 Occup=    1.00000
   1    0.00032039135329294
   2    -0.0010331964127496
   3    0.0039268501387613
   4    0.0093228955042584
   5    -0.0079010162551926
   6     0.006750511936396
   7    0.0051373340429418
   8    0.0062848138452206
   9    -0.020998378828015
  10    -0.016176042802303
  11    -0.019558383815261
  12     0.016034392557229
  13     0.012395159911607
  14     0.021755643571127
  15     0.036706495167993
  16      0.28683297546317
  17      0.30786416608671
  18      0.15460700720423
  19     -0.74796920535464
  20    0.0092932792725019
  21     0.078516966311332
  22     0.082559982358633
  23     0.038556635097186
  24     -0.19402543096511
  25    -0.000617613364989
  26    1.7495614626848e-05
  27    0.00084979793345005
  28    0.0014596573406492
  29    -0.0013881280548926
  30    0.00053753540169683
  31    -0.0023550513297393
  32    -0.010257856628931
  33    -0.021039058148826
  34    -0.029904112727426
  35    -0.050304115005148
  36    -0.095763352682684
  37    0.0069025444846173
  38    -0.056245239834163
  39    -0.093864731372688
  40    0.0030520101090211
  41    -0.00054555110405747
  42    -0.00086886447322988
  43    -0.00094514409264221
  44    0.0010347162277705
  45    0.0019884044932128
  46    -0.00091910234268211
  47    0.0026919630699354
  48    -0.012486829337495
  49     0.011032303842695
  50    0.0028345517157048
  51    0.0034421976446088
  52    -0.0029712722596228
  53    -0.00096060420428905
  54     -0.01115658104379
  55    0.0094695072779216
  56    0.0030659652513437
  57    0.0096579173918979
  58    -0.018915869920163
  59    0.00059747893164271
  60    -0.0010320481307999
  61    -0.0023528087093241
  62    -8.1318129001832e-07
  63    0.0047131838601314
  64    -0.0026056313505632
  65    -0.00073759810467026
  66    -0.0001598809396989
  67    0.0014870781155805
  68    0.0018449778539005
  69    -0.0059204953622934
  70    0.00017266226802832
  71    -9.9183243663333e-05
  72    8.691686074537e-05
  73    -0.00034191649596332
  74    0.00042694111187731
  75    0.0002872664131445
  76    -0.0008339734447364
  77    0.00078740490960975
  78    -0.0052075183403429
  79    0.0077790650680637
  80    0.0016675531568261
  81     -0.02121841474509
  82    -0.0056137638872239
  83    -0.0096465777148928
  84    -0.035894856169152
  85    -0.009391875849567
  86    -0.016901678961418
  87    -0.060302027483312
  88    -0.016644314618779
  89    -0.025590985708892
  90    -0.00092759935212199
  91    -0.0029103326581971
  92    -0.00052735230652568
  93    -0.00083711606255948
  94    0.00082738519569078
  95    -0.0023871512971031
  96     0.015676401259682
  97    -0.021384609202952
  98    -0.015042873171221
  99     0.010699096638664
 100    -0.0017708422892774
 101    -0.025584554349442
 102     0.018450844233528
 103    -0.0034499405417141
 104    -0.043300420817362
 105     0.030880401739369
 106    -0.006022852120298
 107    -0.075923654082999
 108    0.00046733732381305
 109    0.00074862485094484
 110    -0.00075520787593669
 111    -0.00024248601740665
 112    0.00073524026982857
 113     0.004004187324687
 114    -0.026174155105653
 115       0.0332277289166
 116     0.031648729448389
 117    -0.00087023201760997
 118    -0.045576268737488
 119    0.00090647680714698
 120    -0.0019162948157693
 121    -0.077420971154679
 122    0.0013616910290524
 123    -0.0042025323567006
 124     -0.13477879867441
 125    0.0046871262080851
 126    0.00033445875157769
 127    -0.0010756511657434
 128    -0.0023452563697614
 129    6.305183026021e-05
 130    0.0014786231968716
 131    -3.1928292872509e-05
 132    0.00020076454150102
 133    -0.00035417607254642
 134    0.00072973428268856
 135    0.00047993254262919
 136    0.0013331022405504
 137    -0.00023801730174699
 138    0.00083711180066749
 139    0.0022070632894158
 140    -0.00034650217401995
 141    0.00086231761046962
 142    0.0040757403349886
 143    -0.0020752623287262
 144    -1.7061093269715e-05
 145    3.7832581204498e-05
 146    0.00013162738442455
 147    -8.8528517416271e-05
 148    -0.0001943042302949
 149    1.4387809933359e-05
 150    -9.6949344416175e-05
 151    -0.00017065191800534
 152     0.002406699778895
 153    0.0008540816825038
 154    0.00093799822642675
 155    -0.0003130705192195
 156     0.001407765717678
 157    0.0015850221095501
 158    -0.00074093093847376
 159    0.0033085353702371
 160     0.002414962328513
 161    0.0016242942833506
 162    8.045117493884e-06
 163    0.00020016286609199
 164    -6.9538199151604e-05
 165    9.6003596686573e-05
 166    -0.00029205684669817
 167    -0.00053380838366837
 168    0.0035502069822516
 169    -0.0054091388756207
 170    -0.0069170049305897
 171    -0.0044239381508813
 172    -0.0020921425860561
 173    -6.0718497995611e-06
 174    -0.0079280409098887
 175    -0.0036049309956766
 176    0.00017896239755633
 177    -0.012136620144151
 178    -0.008531186145704
 179    -0.0018171545268083
 180    -0.00045062046574292
 181    -0.00010585119343845
 182    -0.00025117172191226
 183    0.00072347348327409
 184    0.00086378603858035
 Sym= A
 Ene=               3
 Spin= Alpha
 Occup=    1.00000
   1    0.00097544154766204
   2    -0.0028523105012491
   3     0.013188586687308
   4    -0.032258437769158
   5     0.016178818317922
   6    -0.0052347389269815
   7    0.0018944749448933
   8    -0.006123165761188
   9     0.016292701133174
  10    -0.0061779465367734
  11     0.019007221987447
  12    -0.014565202152968
  13    0.0002117692109992
  14    -0.020016846624427
  15      0.23790872470061
  16     -0.44309344096562
  17     -0.58247537924109
  18      0.23015189145704
  19     -0.34804684045258
  20     0.062617296613942
  21     -0.11932954255074
  22     -0.15651895447044
  23     0.062210999410914
  24    -0.088992144976205
  25    0.0011997252091967
  26    -0.00075942490903106
  27    -0.00055165077741574
  28    -0.00056239187358236
  29    -0.0019152362738513
  30    -2.0485992493884e-05
  31    -0.0014195562949193
  32    0.0071502555340541
  33     0.015294810394539
  34     0.018815773501178
  35     0.033591426368967
  36    -0.074490486192019
  37    -0.028005024396651
  38      0.03789158860674
  39    -0.072621824544811
  40    -0.025466412419038
  41    0.00029780822428196
  42    0.0010472475766315
  43    -0.0012559362139007
  44    -0.00051442342017021
  45    0.0017268285563642
  46    0.00084330881270574
  47    -0.0024760740510647
  48     0.011423037773918
  49    -0.011415853557855
  50    -0.0034648171740736
  51    -0.003202767828558
  52    -0.0022460699707155
  53    0.00035315601597594
  54     0.010327689840269
  55    0.0071568336229726
  56    -0.0011169541712788
  57    -0.0087160293123529
  58    -0.014471725178191
  59    -0.0041853839184258
  60     0.002548700635588
  61    0.00099152487753998
  62    0.00043540871494282
  63    -0.0030783888828206
  64    -0.0019055194480602
  65    0.0013076616162244
  66    -0.00089138320132283
  67    0.0011706244678022
  68    -0.00081931450134386
  69    -0.0048590570645198
  70    -0.00010138509633189
  71    0.00022050767830584
  72    0.00015408965798166
  73    9.707886941615e-05
  74    0.00035231922176348
  75    -0.00031124208213205
  76    -0.00063733216200336
  77    -0.0025350789016742
  78     0.016595927612874
  79    -0.020118665794051
  80    -0.019410475231814
  81       0.0124205062683
  82    -0.0097218455475069
  83     0.023668255332193
  84     0.021215297756574
  85    -0.016797540621913
  86     0.040609767463049
  87      0.03509407490161
  88    -0.028909188279698
  89     0.070193853885136
  90    -6.7282786180938e-05
  91    0.00098872495619108
  92    0.00018838808789842
  93    0.0010535192436611
  94    -0.001281748098987
  95    -0.001233079024821
  96    0.0080742242850361
  97    -0.009475624961635
  98    -0.012725166068048
  99    -0.0032767980331562
 100     -0.02351739129252
 101    -0.0060001220387509
 102    -0.0052950004188333
 103    -0.040093872206974
 104    -0.010435524740141
 105    -0.0068692342668699
 106     -0.06676410614208
 107    -0.018346810291546
 108    -0.00041082232118675
 109    0.0013819511333974
 110    0.00088846922233021
 111    -0.0019969578505917
 112    -0.0010435494081215
 113    0.0013408325016358
 114    -0.008750336923164
 115     0.011641512367781
 116     0.010605585464586
 117    0.0013791905243203
 118    -0.0090154550668585
 119     0.029040855162427
 120    0.0022219087380153
 121    -0.015115949733422
 122      0.04864684509404
 123     0.003726216329407
 124    -0.028726650021493
 125     0.083633545776709
 126    -0.0014072169764327
 127    0.00058961028883003
 128    0.0014381473430894
 129    -0.0010875016929586
 130    0.0014292214669521
 131    0.00030601350299246
 132    -0.0020233171964544
 133    0.0026199696582149
 134    0.0059606698845254
 135    0.0018642831612878
 136    -7.6160658095454e-05
 137    -0.0017809540962359
 138    0.0034251530620429
 139    -0.00015558168718563
 140    -0.0029266985496722
 141    0.0047267644942833
 142    -0.0010823353856703
 143    -0.0079392370144876
 144    3.0329777327125e-06
 145    0.00055560350614524
 146    4.4224752474812e-05
 147    -0.00027174570705988
 148    0.00017491914913255
 149    0.00020101006662287
 150    -0.0013301895237549
 151    0.0020624701081323
 152    0.0021237270737592
 153    0.0017466342995049
 154    0.00026161813593588
 155    0.00084508719313039
 156    0.0031571569436027
 157    0.00027457202608277
 158     0.001387802486723
 159    0.0047560637474526
 160    0.0017748604859461
 161    0.0030836217170031
 162    0.00028264560598447
 163    -0.0001923839417171
 164    2.9951091184424e-05
 165    -0.00031016550115397
 166    8.9487090639225e-05
 167    -0.00017782772184929
 168    0.0011993844700356
 169    -0.0019667505030439
 170    -0.0027483807738218
 171    -0.0023881165578297
 172    -0.00033593641541972
 173     0.000673406040243
 174    -0.0042775520318629
 175    -0.00050740632765412
 176    0.0012292558253989
 177    -0.0061454366119734
 178    -0.0031759965206162
 179    0.00092078492049926
 180    -4.5519516685965e-05
 181    -0.00017105077747765
 182    -0.00014559353813955
 183    0.00047130691800436
 184    2.6074770126832e-05