[Molden Format]
made by pyscf v[2.1.1]
[Atoms] (AU)
Fe   1   26     3.17068844873907     0.00098706064664     0.12237737881307
O   2   8     0.00000000000000     0.00000000000000    -0.89004350580623
Fe   3   26    -3.17068844873907    -0.00098706064664     0.12237737881307
Cl   4   17     3.53383895113107    -2.07485195383062     3.76228752659000
Cl   5   17     5.54152580550813    -1.85590924879884    -2.78672786652360
Cl   6   17     4.48169216485503     3.92976278472880    -0.95330240907949
Cl   7   17    -3.53383895113107     2.07485195383062     3.76228752659000
Cl   8   17    -5.54152580550813     1.85590924879884    -2.78672786652360
Cl   9   17    -4.48169216485503    -3.92976278472880    -0.95330240907949
[GTO]
1 0
 s    6 1.00
          60923.640643  0.0017552243692958
          9147.8893982   0.013449023284001
          2081.3505927   0.066678874640978
          587.55977067    0.23176348548844
           191.0904399    0.46945550248188
          65.732730112     0.3596824938678
 s    3 1.00
          127.25891928   -0.10723431835929
           14.83091301    0.62971616328466
          6.0653307408    0.44472317896179
 s    3 1.00
           10.44994371   -0.21694289195548
          1.7245228003    0.69457867408393
         0.71772177325    0.43298308896347
 s    1 1.00
        0.091449828308                   1
 s    1 1.00
        0.033706691021                   1
 p    5 1.00
          773.43750995  0.0091440529992506
          182.15149714   0.067887577136571
          57.547272758    0.26167978878504
          20.614988935    0.51088040113251
           7.634855789    0.33235475570224
 p    3 1.00
           3.871932799    0.33193859098144
          1.4924724132     0.5553666555499
         0.56061284958    0.23106034201617
 p    1 1.00
              0.134915                   1
 d    4 1.00
          38.968133419   0.033335938558743
          10.800067078    0.17766212505983
          3.6136457999      0.441281781625
          1.2129967888    0.57089200490673
 d    1 1.00
          0.3652439317                   1
 f    1 1.00
                 1.598                   1

2 0
 s    5 1.00
          2266.1767785  -0.0053893503921743
          340.87010191   -0.04023472138896
          77.363135167   -0.18008184205526
           21.47964494   -0.46828857657651
          6.6589433124   -0.44692617160187
 s    1 1.00
         0.80975975668                   1
 s    1 1.00
         0.25530772234                   1
 p    3 1.00
          17.721504317   0.062630248763161
           3.863550544    0.33331138482352
          1.0480920883    0.74148638308122
 p    1 1.00
         0.27641544411                   1
 d    1 1.00
                   1.2                   1

3 0
 s    6 1.00
          60923.640643  0.0017552243692958
          9147.8893982   0.013449023284001
          2081.3505927   0.066678874640978
          587.55977067    0.23176348548844
           191.0904399    0.46945550248188
          65.732730112     0.3596824938678
 s    3 1.00
          127.25891928   -0.10723431835929
           14.83091301    0.62971616328466
          6.0653307408    0.44472317896179
 s    3 1.00
           10.44994371   -0.21694289195548
          1.7245228003    0.69457867408393
         0.71772177325    0.43298308896347
 s    1 1.00
        0.091449828308                   1
 s    1 1.00
        0.033706691021                   1
 p    5 1.00
          773.43750995  0.0091440529992506
          182.15149714   0.067887577136571
          57.547272758    0.26167978878504
          20.614988935    0.51088040113251
           7.634855789    0.33235475570224
 p    3 1.00
           3.871932799    0.33193859098144
          1.4924724132     0.5553666555499
         0.56061284958    0.23106034201617
 p    1 1.00
              0.134915                   1
 d    4 1.00
          38.968133419   0.033335938558743
          10.800067078    0.17766212505983
          3.6136457999      0.441281781625
          1.2129967888    0.57089200490673
 d    1 1.00
          0.3652439317                   1
 f    1 1.00
                 1.598                   1

4 0
 s    5 1.00
          10449.827566  0.0054265953789407
          1571.7365221   0.040626378128836
          357.12065523    0.18359747852877
          100.25185935    0.47438948768198
          30.812727554    0.43735181104122
 s    3 1.00
          51.923789434  -0.092754154848099
          5.7045760975    0.56380825544207
          2.3508376809    0.50367044629712
 s    1 1.00
         0.44605124672                   1
 s    1 1.00
          0.1684885619                   1
 p    5 1.00
          307.66790569  -0.0088797025588865
          72.102015515  -0.064284071721237
          22.532680262   -0.24288739736006
          7.8991765444   -0.48340836369878
          2.8767268321   -0.38952563875509
 p    1 1.00
         0.77459363955                   1
 p    1 1.00
         0.21037699698                   1
 d    1 1.00
                  0.65                   1

5 0
 s    5 1.00
          10449.827566  0.0054265953789407
          1571.7365221   0.040626378128836
          357.12065523    0.18359747852877
          100.25185935    0.47438948768198
          30.812727554    0.43735181104122
 s    3 1.00
          51.923789434  -0.092754154848099
          5.7045760975    0.56380825544207
          2.3508376809    0.50367044629712
 s    1 1.00
         0.44605124672                   1
 s    1 1.00
          0.1684885619                   1
 p    5 1.00
          307.66790569  -0.0088797025588865
          72.102015515  -0.064284071721237
          22.532680262   -0.24288739736006
          7.8991765444   -0.48340836369878
          2.8767268321   -0.38952563875509
 p    1 1.00
         0.77459363955                   1
 p    1 1.00
         0.21037699698                   1
 d    1 1.00
                  0.65                   1

6 0
 s    5 1.00
          10449.827566  0.0054265953789407
          1571.7365221   0.040626378128836
          357.12065523    0.18359747852877
          100.25185935    0.47438948768198
          30.812727554    0.43735181104122
 s    3 1.00
          51.923789434  -0.092754154848099
          5.7045760975    0.56380825544207
          2.3508376809    0.50367044629712
 s    1 1.00
         0.44605124672                   1
 s    1 1.00
          0.1684885619                   1
 p    5 1.00
          307.66790569  -0.0088797025588865
          72.102015515  -0.064284071721237
          22.532680262   -0.24288739736006
          7.8991765444   -0.48340836369878
          2.8767268321   -0.38952563875509
 p    1 1.00
         0.77459363955                   1
 p    1 1.00
         0.21037699698                   1
 d    1 1.00
                  0.65                   1

7 0
 s    5 1.00
          10449.827566  0.0054265953789407
          1571.7365221   0.040626378128836
          357.12065523    0.18359747852877
          100.25185935    0.47438948768198
          30.812727554    0.43735181104122
 s    3 1.00
          51.923789434  -0.092754154848099
          5.7045760975    0.56380825544207
          2.3508376809    0.50367044629712
 s    1 1.00
         0.44605124672                   1
 s    1 1.00
          0.1684885619                   1
 p    5 1.00
          307.66790569  -0.0088797025588865
          72.102015515  -0.064284071721237
          22.532680262   -0.24288739736006
          7.8991765444   -0.48340836369878
          2.8767268321   -0.38952563875509
 p    1 1.00
         0.77459363955                   1
 p    1 1.00
         0.21037699698                   1
 d    1 1.00
                  0.65                   1

8 0
 s    5 1.00
          10449.827566  0.0054265953789407
          1571.7365221   0.040626378128836
          357.12065523    0.18359747852877
          100.25185935    0.47438948768198
          30.812727554    0.43735181104122
 s    3 1.00
          51.923789434  -0.092754154848099
          5.7045760975    0.56380825544207
          2.3508376809    0.50367044629712
 s    1 1.00
         0.44605124672                   1
 s    1 1.00
          0.1684885619                   1
 p    5 1.00
          307.66790569  -0.0088797025588865
          72.102015515  -0.064284071721237
          22.532680262   -0.24288739736006
          7.8991765444   -0.48340836369878
          2.8767268321   -0.38952563875509
 p    1 1.00
         0.77459363955                   1
 p    1 1.00
         0.21037699698                   1
 d    1 1.00
                  0.65                   1

9 0
 s    5 1.00
          10449.827566  0.0054265953789407
          1571.7365221   0.040626378128836
          357.12065523    0.18359747852877
          100.25185935    0.47438948768198
          30.812727554    0.43735181104122
 s    3 1.00
          51.923789434  -0.092754154848099
          5.7045760975    0.56380825544207
          2.3508376809    0.50367044629712
 s    1 1.00
         0.44605124672                   1
 s    1 1.00
          0.1684885619                   1
 p    5 1.00
          307.66790569  -0.0088797025588865
          72.102015515  -0.064284071721237
          22.532680262   -0.24288739736006
          7.8991765444   -0.48340836369878
          2.8767268321   -0.38952563875509
 p    1 1.00
         0.77459363955                   1
 p    1 1.00
         0.21037699698                   1
 d    1 1.00
                  0.65                   1

[5d]
[7f]
[9g]

[MO]
 Sym= A
 Ene=               0
 Spin= Alpha
 Occup=    1.00000
   1     0.015911658714374
   2    -0.037946989601411
   3      0.25132543395808
   4      0.24466329140093
   5    -0.063947845864885
   6    -0.043419251532444
   7    -0.0010379470647773
   8    -0.016871890287441
   9      0.14369072198001
  10    0.0031983188800795
  11     0.055031440037128
  12     0.085668003742296
  13    0.00036433674336369
  14     0.031939081321732
  15     0.020204660590955
  16    -0.024413534412676
  17    -0.023474968858515
  18     -0.03142734995298
  19      -0.0021135531774
  20     0.017042068140339
  21    -0.021983120284128
  22    -0.016635802321968
  23    -0.028788372770174
  24    -0.0015288380006025
  25    0.0014693983220161
  26    0.00084917976057589
  27    -0.0028483424432767
  28    -0.00045794297976914
  29    0.00039189144785277
  30    -0.0011265994918558
  31    -0.0009081241730712
  32     0.092979033313833
  33    -0.014805259008118
  34    -0.0032534662007434
  35    -0.0058450791008623
  36    0.0018501653178831
  37    0.0026963140354312
  38     0.017210102948808
  39    0.00074436286170177
  40    0.0051680942052939
  41    -0.00061055473485586
  42    0.0011216482598778
  43    -3.74982061366e-05
  44    0.0014592273168666
  45    8.6680207109171e-05
  46    0.0065398893532581
  47     -0.02155980689336
  48     0.080007461857495
  49     0.022959953617251
  50    -0.00054267922687696
  51    -0.048969229916308
  52    -0.00050479742282796
  53     0.020695301981078
  54      0.16257132307734
  55     0.001590747068201
  56    -0.067640353818995
  57     0.017714818104929
  58    -0.0033941471975712
  59    -0.015759274951438
  60    0.0019993558833727
  61    0.0082010341129904
  62    0.0012953923827678
  63    -0.0095490813640106
  64    0.0019895200984288
  65    0.00070778448103084
  66    0.0030587988352708
  67    6.2338562356941e-05
  68    -0.0041894552913817
  69    0.0015803642768954
  70    -9.2248679274931e-06
  71    0.00010887473303886
  72    7.4943603665246e-05
  73    9.6828244354151e-05
  74    8.3793849946429e-05
  75    -2.5594092864455e-06
  76    7.7917256402119e-05
  77     0.015746241015007
  78     -0.10948437695898
  79      0.22483333900511
  80      0.12544083995991
  81    0.0052555726821009
  82     0.039483721308939
  83     -0.06263497317079
  84    0.0073295001431897
  85     0.082780909188187
  86     -0.13486370432959
  87    0.0071271490809904
  88      0.11143184824603
  89     -0.17794133572902
  90     0.011915723938567
  91    0.00070815945577441
  92    -0.014991596678669
  93    -0.0047299924889466
  94    -0.00052159052479062
  95     0.013308916067849
  96    -0.092589138802362
  97      0.19860337134699
  98      0.10873773974132
  99    -0.022955598860514
 100     0.025978132885962
 101     0.047205768028618
 102    -0.052508844638915
 103     0.056831275184684
 104     0.098487623082602
 105    -0.071974539555606
 106     0.070168933029198
 107      0.12887024953228
 108    0.0056399930722747
 109    -0.011250225396814
 110    0.0096022372423551
 111    0.00040899135456367
 112    -0.0067388822001902
 113     0.013330719829412
 114    -0.092810992462283
 115      0.19583306174784
 116      0.11023522099944
 117    -0.010243920669254
 118    -0.056272396326762
 119     0.021533289227081
 120    -0.024955611651608
 121     -0.12124857733056
 122     0.042122630375774
 123    -0.037387667325813
 124     -0.15815181515854
 125     0.060524440637907
 126    -0.0056201494754596
 127    -0.0022115905836236
 128    -0.0077860167818156
 129    -0.011479066483361
 130    0.0061942449282446
 131    -0.00058217341589982
 132    0.0046917631370058
 133    -0.019468853188017
 134    -0.004879231086015
 135     0.022921870145179
 136     0.004963207676552
 137    -0.0014126736212469
 138     0.040500686402195
 139     0.010412417738324
 140    3.0673802837417e-05
 141     0.063407389540166
 142     0.014078171246678
 143    -0.002176463311894
 144    0.0001187798471665
 145    -0.0019466485558563
 146    -0.0004443818488435
 147    0.00042462099971135
 148    -0.0012574429479036
 149    -7.2948025570516e-05
 150    0.0012406852738211
 151    -0.012483806607612
 152    -0.011838499002504
 153     0.017395895186892
 154    -0.0022108492968871
 155    -0.0044938706536812
 156     0.028900139762709
 157    -0.003303476550189
 158    -0.0090955123021681
 159     0.042653606696848
 160    -0.0031896351096582
 161    -0.014666913735699
 162    -0.0010027681247953
 163    0.0010771680160268
 164    1.7981187961919e-05
 165    0.00057484730373719
 166    -0.00087565551037547
 167    0.0008730675517244
 168    -0.0051515416406477
 169    -0.0027022946495979
 170    -0.003682145732092
 171     0.019539845940308
 172    0.0078424482918791
 173    -0.0062057384342492
 174     0.033514045359984
 175     0.012970433028348
 176    -0.011236521145905
 177     0.050960538365163
 178     0.017304813272148
 179    -0.016327624708647
 180    -0.00088925507636885
 181    0.0006293781636158
 182    -1.2963213042429e-05
 183    -0.00067148294494129
 184     0.001855482376775
 Sym= A
 Ene=               1
 Spin= Alpha
 Occup=    1.00000
   1    -2.160381274261e-05
   2    0.00011823854333697
   3    -5.7426066615097e-05
   4    -0.0042708778465881
   5    -0.005650942524402
   6    4.8494570692333e-05
   7    -0.0020936556373769
   8    -0.0082870235594519
   9    -8.7826415811276e-05
  10    0.0064893859035438
  11     0.026216554081525
  12    0.0034090330706419
  13    -0.012075909012027
  14    -0.018644594478323
  15      0.39474767022409
  16      0.60428661832276
  17     -0.41306699323988
  18     -0.26863219736529
  19     0.017984238194641
  20      0.10237186797482
  21      0.15612767056563
  22      -0.1072329267054
  23    -0.069146819893619
  24    0.0035397775518058
  25    -0.00033276581326645
  26    0.0028464516367299
  27    -0.00034121420410108
  28    0.0010926839380857
  29    3.9472985956147e-05
  30    -0.0010110443680887
  31    -0.00028646491630862
  32    -0.0010633672098671
  33    -0.0049986847101115
  34    0.0037711821892557
  35    -0.0076395022228942
  36    -0.0087102169041308
  37     0.098688359190876
  38    -0.009836150410978
  39    -0.0089728649395107
  40      0.11065794403833
  41    0.00099501682115909
  42    -0.0027178607783185
  43    -0.00031562304786503
  44    0.00083201941574859
  45    0.00034468988890663
  46    -0.0010432999539992
  47    0.0031264085318221
  48    -0.013851571073712
  49     0.015030621972907
  50    -0.0063995430406251
  51    0.0050702312883176
  52    -0.00040659692750992
  53      0.00215054813934
  54    -0.016205768933394
  55    0.0012765433497868
  56    -0.0068578518758601
  57     0.014011269154048
  58    -0.0013087307273329
  59     0.019878105379518
  60    -0.0015012352626456
  61    -0.0005762917789775
  62    0.0001901482251635
  63    0.0029046776810409
  64    6.3822675134543e-05
  65    -0.0027760979136635
  66    0.0052759656377278
  67    0.00029253225308031
  68    0.0017595859419814
  69    -0.00080937496974678
  70    -0.00011333682094664
  71    -0.00083872627696397
  72    -3.8291140360487e-05
  73    0.00024099293922064
  74    5.7528536290867e-05
  75     0.000570597592426
  76    -8.5499572187312e-05
  77    -0.0042252683817403
  78     0.027752458820717
  79    -0.035973244289161
  80    -0.032257609717872
  81    -0.008361903531048
  82     -0.01926665031272
  83     0.040344954220803
  84    -0.013943885553917
  85    -0.032920013377452
  86     0.069455245514635
  87    -0.023436407854805
  88    -0.058958257580753
  89      0.12099253471229
  90    0.00018854734730172
  91    -0.0011361656573997
  92     0.001038972541267
  93    0.00042064396652096
  94    0.00097507376086521
  95    0.0038984150298336
  96    -0.025561522186203
  97     0.033009035667781
  98     0.030169811669308
  99    -0.011988414754894
 100     0.018326142276131
 101     0.037744666659298
 102    -0.020905632739747
 103     0.031344512541065
 104     0.064457900376962
 105    -0.036658105162493
 106     0.055056500430996
 107      0.11084339918239
 108    -0.00037704206034005
 109    -0.0012459694944925
 110    0.00028731345483094
 111    0.0011107328116875
 112    -0.0015872503624684
 113    -0.00080898619901064
 114    0.0053887737622763
 115    -0.0092642456044152
 116    0.00055453550940138
 117    0.0091930115348002
 118    0.0074301132600199
 119     0.010381189561154
 120      0.01559628524189
 121     0.013010419882584
 122     0.017437396708713
 123     0.025435702221823
 124     0.019960848079904
 125     0.029895599812887
 126    -0.00056154748031978
 127    0.00067395507160018
 128    0.0015723558097332
 129    -0.00035849556067077
 130    0.0010638039246521
 131    -0.00035742694466961
 132    0.0023981507210423
 133    -0.0034347248833081
 134    -0.0061876654687834
 135    -0.0016653253123371
 136    0.0013411011925835
 137    0.0015722098920315
 138    -0.0030022247487351
 139    0.0021487544698418
 140    0.0026895992502134
 141    -0.005047778133388
 142    0.0067454813267813
 143     0.007641519999382
 144    -6.1253947459796e-05
 145    -0.00065877373707933
 146    5.1999825849798e-05
 147    0.0002435055896815
 148    -0.00037348287021413
 149    0.00022175712037446
 150    -0.0014707409986444
 151    0.0014155350708603
 152    0.0074517917423565
 153    0.0023860552600955
 154    -0.00020641504250759
 155    -0.0011450254495205
 156    0.0042224234775809
 157    -0.00023105176756245
 158    -0.001989856864079
 159    0.0076520517712369
 160    -0.0031529941438831
 161    -0.0003719213018998
 162    0.00010644109300023
 163    0.00035674782372643
 164    -0.0001683855637904
 165    -0.0002064383498358
 166    -5.730373885845e-05
 167    -5.8390687375588e-05
 168    0.00040276875307077
 169    -0.0012638280840358
 170    0.0023653085710758
 171    -0.00034597169560413
 172    -0.00026524434872375
 173    -0.001692110464114
 174    -0.00054033564024588
 175    -0.00058662038078305
 176    -0.0027898039626507
 177    -0.0015176129592557
 178    0.00077527029080062
 179    -0.0054708474475843
 180    -0.0001727813551482
 181    0.00029625699184166
 182    0.00010168488388668
 183    -4.1354753795374e-05
 184    0.00020972081664965
 Sym= A
 Ene=               2
 Spin= Alpha
 Occup=    1.00000
   1    0.00032617797210456
   2    -0.0010631038574483
   3    0.0039550213007357
   4     0.010524377431294
   5    -0.008007936139958
   6     0.006897966140741
   7    0.0051408393228615
   8    0.0063349433021524
   9    -0.021488088887505
  10    -0.016213104667344
  11    -0.019720948893909
  12     0.015777058960886
  13     0.014099771741017
  14     0.021432620331103
  15     0.036656149415349
  16      0.28721906059482
  17      0.30747529550469
  18       0.1550236976336
  19     -0.74952987522739
  20    0.0092818084870861
  21     0.078788306806037
  22     0.082127071469566
  23     0.038707350784778
  24     -0.19528500642668
  25    -0.00060825165178038
  26    1.4965653103279e-05
  27    0.00084208050495384
  28     0.001445481556238
  29    -0.0013606287875036
  30     0.000524674502146
  31    -0.0022947894261015
  32    -0.010260466211647
  33    -0.020888171226585
  34    -0.029788617424925
  35    -0.046605721816841
  36    -0.082536664820416
  37     0.005713870922713
  38    -0.057422564638448
  39    -0.091698547413395
  40    0.0028076574717844
  41    -0.00056445621285247
  42    -0.00082625447744111
  43    -0.00077797459560158
  44    0.0010373600750623
  45    0.0019897098419469
  46    -0.00092741422587018
  47    0.0027309112636634
  48    -0.012543408205239
  49     0.009597704863411
  50    0.0030328811950372
  51    0.0036109855563634
  52    -0.002964532960319
  53    -0.0010270325523008
  54    -0.011717667955825
  55    0.0094232528267366
  56    0.0032856324766062
  57    0.0092336601581988
  58    -0.017211587645349
  59    0.00060864211938204
  60    -0.001813836007697
  61    -0.0022355604382878
  62    -6.7202585848759e-07
  63    0.0039348929081292
  64    -0.00075875798913306
  65    -0.00082150749317908
  66    -2.3905154104704e-05
  67    0.0013666371300027
  68    0.0017814901215691
  69    -0.0056505308535024
  70     0.000164560297031
  71    -9.0467916292996e-05
  72    8.0076287201134e-05
  73    -0.00033295580670075
  74    0.00039877930720786
  75    0.00026914472433195
  76    -0.00077276378769542
  77    0.00075827615251051
  78    -0.0050032276521262
  79    0.0073738618266239
  80    0.0016829073916519
  81     -0.02136165603263
  82    -0.0056904816059973
  83    -0.0094849561756485
  84    -0.036170110385241
  85    -0.0095564028318313
  86    -0.016542078133969
  87    -0.060658109379152
  88    -0.016885092184195
  89    -0.025304320352239
  90    -0.00094826431031208
  91    -0.0029365105276702
  92    -0.00051376259527645
  93    -0.00084752421284032
  94    0.00082469852925432
  95    -0.0024053607035303
  96     0.015803961490644
  97    -0.021663429818631
  98    -0.015035427491735
  99     0.010677972391921
 100    -0.0017834667952999
 101     -0.02571977310092
 102     0.018428053046736
 103    -0.0034751248345645
 104     -0.04358300634282
 105     0.030782313223094
 106    -0.0061425927096759
 107    -0.076177193978923
 108    0.00046790496770192
 109    0.00076385192004205
 110    -0.00075933748912402
 111    -0.00025668866615444
 112    0.00072884529375841
 113    0.0040207407692535
 114    -0.026280984488521
 115     0.033322687526136
 116     0.031413543616974
 117    -0.00085966950193422
 118    -0.045742913647126
 119    0.00097868653033927
 120    -0.0018759884332755
 121    -0.077751384416057
 122     0.001512428193939
 123    -0.0040904055838991
 124     -0.13500691908489
 125     0.004798971808079
 126    0.00029714482624045
 127    -0.0010773367369733
 128    -0.0023428134890078
 129    9.6925873231429e-05
 130    0.0015510688786507
 131    -7.2118314187844e-06
 132    2.7975160265149e-05
 133    4.2155956765605e-06
 134    0.00072437537164797
 135    0.00037370437588696
 136    0.0012417158592032
 137    -0.00036004256520379
 138    0.00063012824063049
 139    0.0020313720944409
 140    -0.00062059977073036
 141    0.00061612827538955
 142    0.0037662984174652
 143    -0.002272749772552
 144    4.3006030874569e-06
 145    2.1248265515281e-05
 146    0.0001362945056831
 147    -7.8984205433593e-05
 148    -0.00018591813991753
 149    3.7220406169274e-05
 150    -0.00025562854556185
 151    0.00017199160270562
 152    0.0023373340332607
 153    0.00086561675606961
 154    0.00088514210812235
 155    -0.00016704838947288
 156    0.0014400128003694
 157    0.0014853020817589
 158    -0.00043420433171238
 159    0.0032783558452732
 160    0.0022149486613748
 161    0.0018832096628734
 162    7.8960616269732e-06
 163    0.00021534531191836
 164    -7.3421957584801e-05
 165    0.00011364301628527
 166    -0.00028609941509369
 167    -0.00054806662013837
 168    0.0036391659990696
 169    -0.0054528007889399
 170    -0.0067132775631038
 171    -0.0044543713568293
 172    -0.0022530661808041
 173    -5.8101789872586e-05
 174    -0.0079587082603357
 175    -0.0039096904927453
 176    6.6722149410351e-05
 177    -0.012133940402873
 178    -0.0087655949945304
 179    -0.0018568917655094
 180    -0.00041471864971481
 181    -0.00011108491763329
 182    -0.00024973929665205
 183    0.00068936526752339
 184    0.00079284272413655
 Sym= A
 Ene=               3
 Spin= Alpha
 Occup=    1.00000
   1    0.0009761168964563
   2    -0.0028475862196828
   3     0.013222913073096
   4    -0.032966322067487
   5     0.016076596504895
   6    -0.0053169949085891
   7    0.0018944873063675
   8    -0.006160486553055
   9     0.016569705253569
  10    -0.0061986168082139
  11     0.019122432923921
  12    -0.014613349116283
  13    0.0015448826632845
  14    -0.019522094519333
  15      0.23778558066384
  16     -0.44359969947396
  17     -0.58282712880184
  18      0.23020700063663
  19     -0.34929569785728
  20     0.062420258785895
  21     -0.11972971696457
  22     -0.15678823776168
  23     0.062246614882751
  24    -0.089979468105541
  25    0.0011888755033844
  26    -0.00074912443620346
  27    -0.00056059690457017
  28    -0.00054478915186696
  29    -0.0018950594642607
  30    -2.1405197575939e-05
  31    -0.0013716497782737
  32    0.0070340155896349
  33     0.014758934404914
  34     0.018489145858125
  35      0.03094905954266
  36    -0.064141136341276
  37    -0.024279735080852
  38     0.038839511833304
  39     -0.07077182709917
  40    -0.024871280444304
  41    0.00035442701096248
  42    0.0010189585001142
  43    -0.0011241251449431
  44    -0.00052041848030077
  45    0.0017282918677087
  46    0.00084615274926531
  47    -0.0024997731842233
  48     0.011402391455171
  49    -0.010044945263747
  50    -0.0036123056574841
  51    -0.0033762163014804
  52    -0.002245422552678
  53    0.00042639225380127
  54     0.010901716482463
  55    0.0071342944573925
  56    -0.0013647192295289
  57    -0.0082141467516538
  58    -0.013115624325076
  59    -0.0037602813824031
  60    0.0015185257331869
  61    0.0014712117444754
  62    3.7927916267387e-05
  63    -0.0031100867106045
  64    -0.00043666202351339
  65    0.0011907255471546
  66    -0.00093997291044916
  67    0.0010859929043187
  68    -0.00065980923200466
  69    -0.0046053845271669
  70    -0.00010026652930605
  71    0.00020296803183746
  72    0.0001448464947124
  73    9.3742456330721e-05
  74    0.00032868962452643
  75    -0.00029408961883851
  76    -0.00059054601869514
  77    -0.002530011106993
  78     0.016561461440199
  79    -0.020061091923997
  80    -0.019222398471575
  81      0.01243144799399
  82    -0.0096734487345442
  83     0.023676874991701
  84     0.021226974576669
  85    -0.016700233015074
  86     0.040632610062452
  87     0.035130837950531
  88    -0.028833767542928
  89     0.070099272511931
  90    -7.544760075768e-05
  91    0.00097381819806883
  92    0.00017676480081685
  93    0.0010452455499397
  94    -0.001288100903988
  95    -0.0012488766402082
  96    0.0081838401691476
  97    -0.0096462874904447
  98    -0.012545213354071
  99    -0.0032465391187236
 100    -0.023558178626701
 101    -0.0061278993086712
 102    -0.0052313910093501
 103    -0.040178899964728
 104    -0.010710179735217
 105    -0.0068794309446037
 106    -0.066896958361524
 107    -0.018589781348926
 108    -0.00039448006617427
 109    0.0014048602582489
 110    0.00088378439828128
 111    -0.0020316497573053
 112    -0.0010322160215487
 113    0.0013602308792139
 114    -0.0088809761862197
 115      0.01185212963676
 116     0.010606064423066
 117    0.0014301687710356
 118    -0.0091515087813286
 119     0.029130310216061
 120    0.0023212788948202
 121    -0.015393267104735
 122     0.048826806812161
 123    0.0038929502272828
 124    -0.028989203456226
 125     0.083779712955204
 126    -0.0014283858228386
 127    0.00058113903950726
 128    0.0014301922201482
 129    -0.0010660148207901
 130    0.0014674874159921
 131    0.00030924763003335
 132    -0.0020456204405634
 133    0.0026094997913412
 134    0.0057046681405897
 135     0.001847395059882
 136    -0.00010123541540744
 137    -0.0018472622628324
 138    0.0033785997708678
 139    -0.00021081910485169
 140    -0.0030783834639218
 141    0.0046654443408052
 142    -0.0011250478551397
 143    -0.007930816545145
 144    1.5075066617319e-05
 145    0.00051112970138092
 146    4.5565967520905e-05
 147    -0.00025182643858119
 148    0.00016434054081712
 149    0.00019233970558631
 150    -0.0012684556395938
 151    0.0018819169603833
 152     0.002041158076302
 153    0.0017761169965364
 154    0.00028660852840671
 155    0.00080884224266369
 156    0.0032011277974863
 157    0.00034002498362682
 158    0.0013276123967924
 159    0.0047987044688541
 160    0.0017366333613661
 161    0.0029212673835318
 162    0.0002704292301469
 163    -0.00017866778613532
 164    3.2398567396118e-05
 165    -0.00029170012574139
 166    9.3377501363751e-05
 167    -0.0002031772030927
 168    0.0013705471691759
 169    -0.0022999060836855
 170    -0.0026355825102342
 171    -0.0023400831112739
 172    -0.00051781558208646
 173    0.00056360807372186
 174    -0.0041756252013259
 175    -0.00087410982254802
 176    0.0010175931195644
 177    -0.0059981103835207
 178    -0.0034636016809747
 179    0.00067851758674218
 180    -2.4803507962742e-05
 181    -0.00016770101816566
 182    -0.0001459052764643
 183    0.00045009769588343
 184    -1.321202836882e-05
 Sym= A