[Molden Format]
made by pyscf v[2.1.1]
[Atoms] (AU)
Fe   1   26     3.17068844873907     0.00098706064664     0.12237737881307
O   2   8     0.00000000000000     0.00000000000000    -0.89004350580623
Fe   3   26    -3.17068844873907    -0.00098706064664     0.12237737881307
Cl   4   17     3.53383895113107    -2.07485195383062     3.76228752659000
Cl   5   17     5.54152580550813    -1.85590924879884    -2.78672786652360
Cl   6   17     4.48169216485503     3.92976278472880    -0.95330240907949
Cl   7   17    -3.53383895113107     2.07485195383062     3.76228752659000
Cl   8   17    -5.54152580550813     1.85590924879884    -2.78672786652360
Cl   9   17    -4.48169216485503    -3.92976278472880    -0.95330240907949
[GTO]
1 0
 s    6 1.00
          60923.640643  0.0017552243692958
          9147.8893982   0.013449023284001
          2081.3505927   0.066678874640978
          587.55977067    0.23176348548844
           191.0904399    0.46945550248188
          65.732730112     0.3596824938678
 s    3 1.00
          127.25891928   -0.10723431835929
           14.83091301    0.62971616328466
          6.0653307408    0.44472317896179
 s    3 1.00
           10.44994371   -0.21694289195548
          1.7245228003    0.69457867408393
         0.71772177325    0.43298308896347
 s    1 1.00
        0.091449828308                   1
 s    1 1.00
        0.033706691021                   1
 p    5 1.00
          773.43750995  0.0091440529992506
          182.15149714   0.067887577136571
          57.547272758    0.26167978878504
          20.614988935    0.51088040113251
           7.634855789    0.33235475570224
 p    3 1.00
           3.871932799    0.33193859098144
          1.4924724132     0.5553666555499
         0.56061284958    0.23106034201617
 p    1 1.00
              0.134915                   1
 d    4 1.00
          38.968133419   0.033335938558743
          10.800067078    0.17766212505983
          3.6136457999      0.441281781625
          1.2129967888    0.57089200490673
 d    1 1.00
          0.3652439317                   1
 f    1 1.00
                 1.598                   1

2 0
 s    5 1.00
          2266.1767785  -0.0053893503921743
          340.87010191   -0.04023472138896
          77.363135167   -0.18008184205526
           21.47964494   -0.46828857657651
          6.6589433124   -0.44692617160187
 s    1 1.00
         0.80975975668                   1
 s    1 1.00
         0.25530772234                   1
 p    3 1.00
          17.721504317   0.062630248763161
           3.863550544    0.33331138482352
          1.0480920883    0.74148638308122
 p    1 1.00
         0.27641544411                   1
 d    1 1.00
                   1.2                   1

3 0
 s    6 1.00
          60923.640643  0.0017552243692958
          9147.8893982   0.013449023284001
          2081.3505927   0.066678874640978
          587.55977067    0.23176348548844
           191.0904399    0.46945550248188
          65.732730112     0.3596824938678
 s    3 1.00
          127.25891928   -0.10723431835929
           14.83091301    0.62971616328466
          6.0653307408    0.44472317896179
 s    3 1.00
           10.44994371   -0.21694289195548
          1.7245228003    0.69457867408393
         0.71772177325    0.43298308896347
 s    1 1.00
        0.091449828308                   1
 s    1 1.00
        0.033706691021                   1
 p    5 1.00
          773.43750995  0.0091440529992506
          182.15149714   0.067887577136571
          57.547272758    0.26167978878504
          20.614988935    0.51088040113251
           7.634855789    0.33235475570224
 p    3 1.00
           3.871932799    0.33193859098144
          1.4924724132     0.5553666555499
         0.56061284958    0.23106034201617
 p    1 1.00
              0.134915                   1
 d    4 1.00
          38.968133419   0.033335938558743
          10.800067078    0.17766212505983
          3.6136457999      0.441281781625
          1.2129967888    0.57089200490673
 d    1 1.00
          0.3652439317                   1
 f    1 1.00
                 1.598                   1

4 0
 s    5 1.00
          10449.827566  0.0054265953789407
          1571.7365221   0.040626378128836
          357.12065523    0.18359747852877
          100.25185935    0.47438948768198
          30.812727554    0.43735181104122
 s    3 1.00
          51.923789434  -0.092754154848099
          5.7045760975    0.56380825544207
          2.3508376809    0.50367044629712
 s    1 1.00
         0.44605124672                   1
 s    1 1.00
          0.1684885619                   1
 p    5 1.00
          307.66790569  -0.0088797025588865
          72.102015515  -0.064284071721237
          22.532680262   -0.24288739736006
          7.8991765444   -0.48340836369878
          2.8767268321   -0.38952563875509
 p    1 1.00
         0.77459363955                   1
 p    1 1.00
         0.21037699698                   1
 d    1 1.00
                  0.65                   1

5 0
 s    5 1.00
          10449.827566  0.0054265953789407
          1571.7365221   0.040626378128836
          357.12065523    0.18359747852877
          100.25185935    0.47438948768198
          30.812727554    0.43735181104122
 s    3 1.00
          51.923789434  -0.092754154848099
          5.7045760975    0.56380825544207
          2.3508376809    0.50367044629712
 s    1 1.00
         0.44605124672                   1
 s    1 1.00
          0.1684885619                   1
 p    5 1.00
          307.66790569  -0.0088797025588865
          72.102015515  -0.064284071721237
          22.532680262   -0.24288739736006
          7.8991765444   -0.48340836369878
          2.8767268321   -0.38952563875509
 p    1 1.00
         0.77459363955                   1
 p    1 1.00
         0.21037699698                   1
 d    1 1.00
                  0.65                   1

6 0
 s    5 1.00
          10449.827566  0.0054265953789407
          1571.7365221   0.040626378128836
          357.12065523    0.18359747852877
          100.25185935    0.47438948768198
          30.812727554    0.43735181104122
 s    3 1.00
          51.923789434  -0.092754154848099
          5.7045760975    0.56380825544207
          2.3508376809    0.50367044629712
 s    1 1.00
         0.44605124672                   1
 s    1 1.00
          0.1684885619                   1
 p    5 1.00
          307.66790569  -0.0088797025588865
          72.102015515  -0.064284071721237
          22.532680262   -0.24288739736006
          7.8991765444   -0.48340836369878
          2.8767268321   -0.38952563875509
 p    1 1.00
         0.77459363955                   1
 p    1 1.00
         0.21037699698                   1
 d    1 1.00
                  0.65                   1

7 0
 s    5 1.00
          10449.827566  0.0054265953789407
          1571.7365221   0.040626378128836
          357.12065523    0.18359747852877
          100.25185935    0.47438948768198
          30.812727554    0.43735181104122
 s    3 1.00
          51.923789434  -0.092754154848099
          5.7045760975    0.56380825544207
          2.3508376809    0.50367044629712
 s    1 1.00
         0.44605124672                   1
 s    1 1.00
          0.1684885619                   1
 p    5 1.00
          307.66790569  -0.0088797025588865
          72.102015515  -0.064284071721237
          22.532680262   -0.24288739736006
          7.8991765444   -0.48340836369878
          2.8767268321   -0.38952563875509
 p    1 1.00
         0.77459363955                   1
 p    1 1.00
         0.21037699698                   1
 d    1 1.00
                  0.65                   1

8 0
 s    5 1.00
          10449.827566  0.0054265953789407
          1571.7365221   0.040626378128836
          357.12065523    0.18359747852877
          100.25185935    0.47438948768198
          30.812727554    0.43735181104122
 s    3 1.00
          51.923789434  -0.092754154848099
          5.7045760975    0.56380825544207
          2.3508376809    0.50367044629712
 s    1 1.00
         0.44605124672                   1
 s    1 1.00
          0.1684885619                   1
 p    5 1.00
          307.66790569  -0.0088797025588865
          72.102015515  -0.064284071721237
          22.532680262   -0.24288739736006
          7.8991765444   -0.48340836369878
          2.8767268321   -0.38952563875509
 p    1 1.00
         0.77459363955                   1
 p    1 1.00
         0.21037699698                   1
 d    1 1.00
                  0.65                   1

9 0
 s    5 1.00
          10449.827566  0.0054265953789407
          1571.7365221   0.040626378128836
          357.12065523    0.18359747852877
          100.25185935    0.47438948768198
          30.812727554    0.43735181104122
 s    3 1.00
          51.923789434  -0.092754154848099
          5.7045760975    0.56380825544207
          2.3508376809    0.50367044629712
 s    1 1.00
         0.44605124672                   1
 s    1 1.00
          0.1684885619                   1
 p    5 1.00
          307.66790569  -0.0088797025588865
          72.102015515  -0.064284071721237
          22.532680262   -0.24288739736006
          7.8991765444   -0.48340836369878
          2.8767268321   -0.38952563875509
 p    1 1.00
         0.77459363955                   1
 p    1 1.00
         0.21037699698                   1
 d    1 1.00
                  0.65                   1

[5d]
[7f]
[9g]

[MO]
 Sym= A
 Ene=               0
 Spin= Alpha
 Occup=    1.00000
   1    0.0024603605261263
   2    -0.0087950781884907
   3     0.027452610510598
   4    -0.020589916090096
   5     0.005259749250067
   6     0.031619897695251
   7    0.0051372624133027
   8     0.003003745592315
   9      -0.1038373609219
  10    -0.016191235201336
  11     -0.01183575489012
  12    -0.024832657879671
  13     0.019525867474731
  14     0.060761322042126
  15     0.024497042576543
  16     0.057127562218314
  17    -0.076585854468257
  18    -0.045301282209147
  19     0.032216586905506
  20     0.017410185911605
  21     0.041724856181994
  22     -0.05073260553582
  23    -0.028064549077532
  24     0.021365216450803
  25    1.6874513555884e-05
  26    -0.0012756174261771
  27    -0.00083382032834632
  28    -2.7864490948216e-05
  29    -0.0022300363607046
  30    0.00043872595281838
  31    0.00075643731533385
  32    -0.067068590485096
  33    -0.018356904515258
  34    -0.019917003000472
  35    -9.2693619563265e-17
  36    -2.1649925607671e-16
  37    -0.087562998078676
  38    -8.5647304374579e-17
  39    -2.2796967606235e-16
  40    -0.087823230705049
  41    -0.0013041845340559
  42    -1.7459556403434e-18
  43    -5.0789514143633e-18
  44    -0.0013868760473897
  45    0.00054419657966398
  46    0.0024603605261263
  47    -0.0087950781884907
  48     0.027452610510597
  49    -0.020589916090096
  50     0.005259749250067
  51    -0.031619897695251
  52    -0.0051372624133028
  53    0.0030037455923149
  54       0.1038373609219
  55     0.016191235201336
  56    -0.011835754890119
  57     0.024832657879671
  58    -0.019525867474731
  59     0.060761322042126
  60     0.024497042576543
  61    -0.057127562218314
  62     0.076585854468256
  63    -0.045301282209147
  64     0.032216586905505
  65     0.017410185911605
  66    -0.041724856181994
  67     0.050732605535819
  68    -0.028064549077532
  69     0.021365216450803
  70    1.6874513555886e-05
  71     0.001275617426177
  72    0.00083382032834632
  73    -2.7864490948223e-05
  74    -0.0022300363607046
  75    -0.00043872595281838
  76    -0.00075643731533385
  77     0.011291087241842
  78    -0.079061142829443
  79      0.12618934970375
  80     0.066420185878778
  81    0.0023990760433468
  82     0.022231577242121
  83    -0.066180478403739
  84    0.0034842407613878
  85     0.052303796914314
  86     -0.14083675052784
  87     0.011387163228168
  88     0.071421793322459
  89     -0.20310149177732
  90    0.0082009499944022
  91    0.00090905105748016
  92    -0.010246593428479
  93    -0.0031769307789656
  94    0.00024195676629087
  95    -0.016141143949766
  96      0.11309790202193
  97     -0.19900804799839
  98     -0.10068188973689
  99     0.032871718645723
 100    -0.039596852406395
 101    -0.073206984383362
 102     0.076945936220594
 103    -0.086272734825229
 104     -0.15588172332488
 105      0.10076554266128
 106       -0.119821799228
 107     -0.22493437206086
 108    -0.0071805037695787
 109     0.011961158230019
 110    -0.010888697449617
 111    -0.0016619299244759
 112    0.0062931878556362
 113    0.0031981545155248
 114    -0.022587182005078
 115     0.031756243787952
 116     0.019900698107121
 117     -0.01655879047886
 118    -0.019320503273473
 119    -0.012052823575786
 120    -0.033291708703839
 121    -0.041635768800966
 122    -0.019605925376808
 123    -0.047875277939696
 124     -0.06614086163595
 125    -0.035935537591135
 126    -0.0010111953281397
 127    -0.00018795815404095
 128    -0.0015987725144819
 129    -0.00064580800219675
 130    0.0036486627210226
 131     0.011291087241842
 132    -0.079061142829443
 133      0.12618934970375
 134     0.066420185878778
 135    -0.0023990760433468
 136    -0.022231577242121
 137    -0.066180478403739
 138    -0.003484240761388
 139    -0.052303796914314
 140     -0.14083675052784
 141    -0.011387163228168
 142     -0.07142179332246
 143     -0.20310149177732
 144    0.0082009499944022
 145    -0.00090905105748015
 146     0.010246593428479
 147    -0.0031769307789656
 148    0.00024195676629087
 149    -0.016141143949766
 150      0.11309790202193
 151     -0.19900804799839
 152     -0.10068188973689
 153    -0.032871718645723
 154     0.039596852406395
 155    -0.073206984383362
 156    -0.076945936220594
 157     0.086272734825229
 158     -0.15588172332488
 159     -0.10076554266128
 160        0.119821799228
 161     -0.22493437206086
 162    -0.0071805037695787
 163    -0.011961158230019
 164     0.010888697449617
 165    -0.0016619299244759
 166    0.0062931878556362
 167    0.0031981545155247
 168    -0.022587182005077
 169     0.031756243787951
 170      0.01990069810712
 171      0.01655879047886
 172     0.019320503273472
 173    -0.012052823575786
 174     0.033291708703838
 175     0.041635768800965
 176    -0.019605925376808
 177     0.047875277939696
 178     0.066140861635948
 179    -0.035935537591136
 180    -0.0010111953281396
 181    0.00018795815404094
 182    0.0015987725144818
 183    -0.00064580800219668
 184    0.0036486627210225
 Sym= A
 Ene=               1
 Spin= Alpha
 Occup=    1.00000
   1    -0.008885124878814
   2     0.027786602073915
   3     -0.11474385374677
   4    -0.029499268083367
   5      0.03005402065818
   6    -0.051851831487782
   7    0.0060522216817101
   8    -0.024923227753936
   9       0.1725686292741
  10    -0.018200942150918
  11     0.081379676060689
  12    0.0023209864257392
  13    -0.063870410852344
  14    -0.0088060359168151
  15     0.025758227636771
  16    0.0017548612256466
  17     0.044153054507444
  18     0.075275575592845
  19    -0.066977096257574
  20     0.019533317508339
  21    -0.0019310949771885
  22     0.028119426927989
  23     0.045286834867152
  24    -0.046581555976435
  25    0.00051515971277673
  26    0.0013987604797222
  27    0.00039052186391677
  28    -0.0014861395884614
  29    0.0016863865530039
  30    0.00051185779327461
  31    0.00065358721501744
  32    -2.9328177330884e-16
  33    2.4939698301232e-16
  34    1.7231920904553e-16
  35     0.075003710545315
  36      0.05800488249517
  37    -3.3006766049791e-16
  38     0.068122191305129
  39      0.06284180543081
  40    -3.144762467357e-16
  41    -8.400344688533e-18
  42    0.0016352814903063
  43    0.0015653003617559
  44    2.9678273164978e-18
  45    1.0092031739138e-18
  46     0.008885124878814
  47    -0.027786602073915
  48      0.11474385374677
  49     0.029499268083366
  50     -0.03005402065818
  51    -0.051851831487782
  52    0.0060522216817101
  53     0.024923227753936
  54       0.1725686292741
  55    -0.018200942150918
  56    -0.081379676060689
  57    0.0023209864257393
  58    -0.063870410852344
  59    0.0088060359168153
  60    -0.025758227636771
  61    0.0017548612256462
  62     0.044153054507444
  63    -0.075275575592845
  64     0.066977096257575
  65    -0.019533317508338
  66    -0.0019310949771888
  67     0.028119426927989
  68    -0.045286834867152
  69     0.046581555976435
  70    -0.00051515971277672
  71    0.0013987604797222
  72    0.00039052186391677
  73    0.0014861395884614
  74    -0.0016863865530039
  75    0.00051185779327461
  76    0.00065358721501744
  77    0.00089510278688461
  78    -0.0062433734968061
  79     0.016179803760184
  80    0.0048812891468444
  81     0.028958694455409
  82     0.026283775847096
  83    0.0096735677378754
  84     0.053168437816212
  85     0.048439779996347
  86     0.017054443001685
  87      0.08080270193803
  88     0.077464794176158
  89      0.02800026312371
  90    -0.00093547303723062
  91    -0.0031605974408912
  92    -0.0019984402809793
  93    -0.0012198334289377
  94    0.0011918612241179
  95     0.010114743164463
  96    -0.071613104357595
  97      0.13043125341938
  98     0.066454938021648
  99    -0.011535704742151
 100     0.023778206941782
 101     0.047871662202438
 102    -0.034571476968429
 103     0.052402942997958
 104       0.1024598193664
 105    -0.044584839618929
 106     0.081310880000538
 107      0.14934742492844
 108    0.0061483962014125
 109    -0.0070217229586608
 110    0.0056002573923191
 111     0.002694652567153
 112    -0.0033852872701735
 113    -0.016156090135286
 114      0.11063506227505
 115     -0.16891649984165
 116    -0.095613039640184
 117     0.037945407469701
 118     0.091828291671285
 119    -0.016657728211081
 120     0.073675447121762
 121      0.18653265500184
 122    -0.036373015983763
 123      0.10134619340628
 124      0.27050495677629
 125    -0.053120689758208
 126    0.0055280794246662
 127    0.0028733183717177
 128     0.010167357363577
 129     0.011682661137032
 130    -0.0083523489238014
 131    -0.00089510278688462
 132    0.0062433734968056
 133    -0.016179803760184
 134    -0.004881289146844
 135     0.028958694455409
 136     0.026283775847096
 137    -0.0096735677378758
 138     0.053168437816212
 139     0.048439779996346
 140    -0.017054443001686
 141      0.08080270193803
 142     0.077464794176157
 143    -0.028000263123711
 144    0.00093547303723067
 145    -0.0031605974408912
 146    -0.0019984402809792
 147    0.0012198334289377
 148    -0.0011918612241179
 149    -0.010114743164463
 150     0.071613104357596
 151     -0.13043125341938
 152    -0.066454938021649
 153    -0.011535704742151
 154     0.023778206941782
 155    -0.047871662202439
 156     -0.03457147696843
 157     0.052402942997959
 158      -0.1024598193664
 159    -0.044584839618929
 160     0.081310880000538
 161     -0.14934742492845
 162    -0.0061483962014125
 163    -0.0070217229586609
 164    0.0056002573923192
 165    -0.002694652567153
 166    0.0033852872701735
 167     0.016156090135286
 168     -0.11063506227505
 169      0.16891649984165
 170     0.095613039640184
 171     0.037945407469701
 172     0.091828291671285
 173     0.016657728211081
 174     0.073675447121762
 175      0.18653265500184
 176     0.036373015983762
 177      0.10134619340628
 178      0.27050495677629
 179     0.053120689758208
 180    -0.0055280794246662
 181    0.0028733183717177
 182     0.010167357363577
 183    -0.011682661137032
 184    0.0083523489238014
 Sym= A
 Ene=               2
 Spin= Alpha
 Occup=    1.00000
   1     0.022445909476803
   2    -0.069073946056453
   3      0.29423355049452
   4     0.043164357728006
   5    -0.064979243913169
   6      0.12280449557104
   7    0.0013316160519435
   8      0.03659855320849
   9     -0.40834510027334
  10    -0.003953588215601
  11     -0.12167917449664
  12     0.035521296269961
  13    -0.018737597975932
  14    -0.044521915756132
  15     0.031897556186272
  16    -0.075208297240909
  17     0.034837882203394
  18    -0.041479795859739
  19    -0.026930990579025
  20     0.015832701395827
  21     -0.04421378161117
  22     0.024415625923482
  23    -0.018511108039628
  24    -0.017995859056127
  25    -0.00055951101415549
  26    0.00010791184331451
  27    -0.00036045065707814
  28    0.0010676981137146
  29    0.0016067886159496
  30     0.001392254574611
  31    -0.000439115730203
  32    -3.167116877514e-17
  33    -2.419725292016e-17
  34    -2.67599227006e-17
  35     -0.14258748282453
  36     0.014112228261013
  37    -2.8237038653403e-17
  38     -0.12799889359177
  39      0.01580557628609
  40    -3.3274013588082e-17
  41    -5.2688871954833e-20
  42    -0.0040840788785035
  43    0.00045027247911854
  44    -6.6937740509196e-19
  45    -6.881577730776e-20
  46    -0.022445909476803
  47     0.069073946056453
  48     -0.29423355049452
  49    -0.043164357728006
  50     0.064979243913169
  51      0.12280449557104
  52    0.0013316160519435
  53     -0.03659855320849
  54     -0.40834510027334
  55    -0.003953588215601
  56      0.12167917449664
  57     0.035521296269961
  58    -0.018737597975932
  59     0.044521915756132
  60    -0.031897556186272
  61    -0.075208297240909
  62     0.034837882203394
  63     0.041479795859739
  64     0.026930990579025
  65    -0.015832701395827
  66     -0.04421378161117
  67     0.024415625923482
  68     0.018511108039628
  69     0.017995859056127
  70    0.00055951101415549
  71    0.00010791184331451
  72    -0.00036045065707814
  73    -0.0010676981137146
  74    -0.0016067886159496
  75     0.001392254574611
  76    -0.000439115730203
  77    -0.0033336418091904
  78     0.024847660531975
  79    -0.060031092687986
  80    -0.019261432808709
  81    -0.043715889782706
  82    -0.0013205265760874
  83     0.010453806435489
  84    -0.077708360260691
  85    -0.0083271901225849
  86     0.029937051348068
  87     -0.11808626719904
  88    -0.0075742745165612
  89     0.040587923153499
  90    -0.0012479106842663
  91    0.0027236242111394
  92    0.0022266389358207
  93    0.00048485173665149
  94    -0.002332126022519
  95     0.011513427018913
  96    -0.079383576980147
  97      0.11821958595168
  98     0.063817190984741
  99    -0.068705858391843
 100     0.028761365828373
 101     0.037542330483567
 102     -0.13341719220327
 103     0.061709979648225
 104      0.08310646977801
 105     -0.18984062971432
 106     0.082420714730522
 107        0.112968016752
 108    0.0028450124101464
 109    -0.011032165464429
 110    0.0066599786192966
 111    0.0027057339971442
 112    -0.006324516191572
 113    -0.001681936121123
 114     0.013368434076372
 115    -0.039378240356498
 116    -0.016033119516659
 117    -0.030572659206491
 118    0.0044574557902721
 119    -0.0056572340483018
 120    -0.050309260452734
 121     0.015435011104634
 122    -0.012419440594358
 123     -0.07931190037808
 124     0.029437015150077
 125    -0.015279570339061
 126    -0.00021166267617402
 127    -0.00098643103285238
 128    0.0022299385918037
 129    9.966482645404e-05
 130    0.00078575600738917
 131    0.0033336418091902
 132    -0.024847660531975
 133     0.060031092687986
 134     0.019261432808709
 135    -0.043715889782706
 136    -0.0013205265760875
 137    -0.010453806435489
 138    -0.077708360260691
 139    -0.0083271901225851
 140    -0.029937051348068
 141     -0.11808626719904
 142    -0.0075742745165615
 143    -0.040587923153499
 144    0.0012479106842663
 145    0.0027236242111394
 146    0.0022266389358208
 147    -0.0004848517366515
 148     0.002332126022519
 149    -0.011513427018913
 150     0.079383576980147
 151     -0.11821958595168
 152    -0.063817190984741
 153    -0.068705858391843
 154     0.028761365828373
 155    -0.037542330483567
 156     -0.13341719220327
 157     0.061709979648225
 158     -0.08310646977801
 159     -0.18984062971432
 160     0.082420714730522
 161       -0.112968016752
 162    -0.0028450124101465
 163    -0.011032165464429
 164    0.0066599786192966
 165    -0.0027057339971442
 166     0.006324516191572
 167    0.0016819361211231
 168    -0.013368434076372
 169     0.039378240356498
 170     0.016033119516659
 171    -0.030572659206491
 172     0.004457455790272
 173    0.0056572340483018
 174    -0.050309260452734
 175     0.015435011104634
 176     0.012419440594358
 177     -0.07931190037808
 178     0.029437015150077
 179     0.015279570339061
 180    0.00021166267617402
 181    -0.00098643103285238
 182    0.0022299385918037
 183    -9.9664826454034e-05
 184    -0.00078575600738917
 Sym= A
 Ene=               3
 Spin= Alpha
 Occup=    1.00000
   1    0.0034454397527728
   2    -0.010703177069191
   3      0.04476091928661
   4    -0.010981023811607
   5    2.9748510973807e-05
   6     0.023974862301486
   7    -0.020530277533311
   8    -0.0046486640450059
   9    -0.078749179807447
  10     0.064792319987727
  11      0.01266880669316
  12    -0.0087336274250172
  13    -0.066626428300128
  14     0.025942251417403
  15     0.074299138043417
  16    -0.00065075030575121
  17     0.011507592023678
  18     0.034541094154267
  19    -0.041223936078458
  20     0.052526930513442
  21    0.0013085193411032
  22    0.0063644304870724
  23     0.026012462301872
  24    -0.029129307174621
  25    0.00051824638954348
  26    0.0011273965220315
  27    -0.00046575355145813
  28    -0.00099248071504051
  29    0.0006035409652085
  30    0.0015280132782943
  31    0.00046545134257055
  32    -0.0089565359967148
  33    0.0023185624032429
  34    0.0026878360687633
  35    1.5802834079775e-15
  36    -1.9019882698354e-15
  37    -0.031364093316232
  38    1.8279109022253e-15
  39    -2.1291254682687e-15
  40    -0.034692380723045
  41    0.00011605818852886
  42    3.0595100150583e-17
  43    -1.8314694221045e-18
  44    0.00014763521809879
  45    -0.0010581585669407
  46    0.0034454397527729
  47    -0.010703177069192
  48      0.04476091928661
  49    -0.010981023811605
  50    2.9748510970061e-05
  51     -0.02397486230149
  52     0.020530277533309
  53    -0.0046486640450019
  54     0.078749179807463
  55    -0.064792319987722
  56     0.012668806693147
  57    0.0087336274250207
  58     0.066626428300132
  59     0.025942251417408
  60     0.074299138043423
  61    0.00065075030574998
  62    -0.011507592023672
  63     0.034541094154266
  64    -0.041223936078459
  65     0.052526930513446
  66    -0.0013085193411045
  67    -0.0063644304870679
  68     0.026012462301871
  69    -0.029129307174622
  70    0.00051824638954349
  71    -0.0011273965220316
  72    0.00046575355145825
  73    -0.00099248071504055
  74    0.00060354096520841
  75    -0.0015280132782944
  76    -0.00046545134257066
  77    0.0088714424120369
  78    -0.061805573868171
  79     0.098141150509389
  80     0.055823296308702
  81    0.0042249644502263
  82     0.081969855936283
  83    -0.017317821785575
  84     0.008139238947966
  85      0.15704837276565
  86    -0.046265023256814
  87     0.013775423512246
  88      0.23990253468264
  89    -0.058486823470658
  90    0.0022682923594535
  91    -9.4652099529377e-05
  92    -0.011627805670553
  93    -0.0054719248899592
  94    -0.00034218427540001
  95      0.00503458135989
  96    -0.036148381937627
  97     0.061803633020278
  98      0.03602556390984
  99    -0.026803333042658
 100      0.03809685495592
 101    -0.0074590259863033
 102    -0.058072248813006
 103     0.073901707152178
 104    -0.0043432997054304
 105    -0.086328890620956
 106      0.11998485313243
 107    -0.012124894986262
 108    5.2689269334437e-06
 109    -0.003892578745106
 110    0.0027895976618112
 111     0.002369463895077
 112    -0.0037726284640421
 113    -0.015421308495962
 114      0.10782527474395
 115     -0.18116086658446
 116    -0.095097803067459
 117     0.010516582533238
 118     0.079578003001668
 119    -0.034796897947931
 120     0.028667522788248
 121      0.17121632895861
 122    -0.070491674401606
 123     0.035115264025508
 124      0.24404367485842
 125     -0.10881869435467
 126    0.0047874332012754
 127    0.0023949053073374
 128     0.011387977300797
 129     0.010487673970855
 130    -0.0066302708500697
 131    0.0088714424120384
 132    -0.061805573868182
 133     0.098141150509406
 134     0.055823296308711
 135    -0.0042249644502248
 136    -0.081969855936286
 137    -0.017317821785583
 138    -0.0081392389479632
 139     -0.15704837276565
 140    -0.046265023256832
 141    -0.013775423512243
 142     -0.23990253468265
 143    -0.058486823470684
 144    0.0022682923594547
 145    9.4652099529143e-05
 146     0.011627805670554
 147    -0.0054719248899596
 148    -0.00034218427540012
 149    0.0050345813598893
 150    -0.036148381937623
 151     0.061803633020269
 152     0.036025563909836
 153     0.026803333042659
 154    -0.038096854955921
 155    -0.0074590259863081
 156     0.058072248813007
 157    -0.073901707152179
 158    -0.0043432997054402
 159     0.086328890620958
 160     -0.11998485313243
 161    -0.012124894986276
 162    5.2689269330156e-06
 163    0.0038925787451056
 164    -0.0027895976618108
 165     0.002369463895077
 166    -0.0037726284640421
 167    -0.015421308495963
 168      0.10782527474396
 169     -0.18116086658446
 170    -0.095097803067463
 171    -0.010516582533236
 172    -0.079578003001671
 173    -0.034796897947939
 174    -0.028667522788244
 175     -0.17121632895862
 176     -0.07049167440162
 177    -0.035115264025503
 178     -0.24404367485843
 179     -0.10881869435469
 180    0.0047874332012754
 181    -0.0023949053073376
 182    -0.011387977300798
 183     0.010487673970856
 184    -0.0066302708500697
 Sym= A
 Ene=               4
 Spin= Alpha
 Occup=    1.00000
   1    0.00094047232722529
   2    -0.005499002114698
   3    0.0027381584687915
   4     0.023037629814842
   5    -0.035690343109903