[Molden Format]
made by pyscf v[2.1.1]
[Atoms] (AU)
Fe   1   26     3.17068844873907     0.00098706064664     0.12237737881307
O   2   8     0.00000000000000     0.00000000000000    -0.89004350580623
Fe   3   26    -3.17068844873907    -0.00098706064664     0.12237737881307
Cl   4   17     3.53383895113107    -2.07485195383062     3.76228752659000
Cl   5   17     5.54152580550813    -1.85590924879884    -2.78672786652360
Cl   6   17     4.48169216485503     3.92976278472880    -0.95330240907949
Cl   7   17    -3.53383895113107     2.07485195383062     3.76228752659000
Cl   8   17    -5.54152580550813     1.85590924879884    -2.78672786652360
Cl   9   17    -4.48169216485503    -3.92976278472880    -0.95330240907949
[GTO]
1 0
 s    6 1.00
          60923.640643  0.0017552243692958
          9147.8893982   0.013449023284001
          2081.3505927   0.066678874640978
          587.55977067    0.23176348548844
           191.0904399    0.46945550248188
          65.732730112     0.3596824938678
 s    3 1.00
          127.25891928   -0.10723431835929
           14.83091301    0.62971616328466
          6.0653307408    0.44472317896179
 s    3 1.00
           10.44994371   -0.21694289195548
          1.7245228003    0.69457867408393
         0.71772177325    0.43298308896347
 s    1 1.00
        0.091449828308                   1
 s    1 1.00
        0.033706691021                   1
 p    5 1.00
          773.43750995  0.0091440529992506
          182.15149714   0.067887577136571
          57.547272758    0.26167978878504
          20.614988935    0.51088040113251
           7.634855789    0.33235475570224
 p    3 1.00
           3.871932799    0.33193859098144
          1.4924724132     0.5553666555499
         0.56061284958    0.23106034201617
 p    1 1.00
              0.134915                   1
 d    4 1.00
          38.968133419   0.033335938558743
          10.800067078    0.17766212505983
          3.6136457999      0.441281781625
          1.2129967888    0.57089200490673
 d    1 1.00
          0.3652439317                   1
 f    1 1.00
                 1.598                   1

2 0
 s    5 1.00
          2266.1767785  -0.0053893503921743
          340.87010191   -0.04023472138896
          77.363135167   -0.18008184205526
           21.47964494   -0.46828857657651
          6.6589433124   -0.44692617160187
 s    1 1.00
         0.80975975668                   1
 s    1 1.00
         0.25530772234                   1
 p    3 1.00
          17.721504317   0.062630248763161
           3.863550544    0.33331138482352
          1.0480920883    0.74148638308122
 p    1 1.00
         0.27641544411                   1
 d    1 1.00
                   1.2                   1

3 0
 s    6 1.00
          60923.640643  0.0017552243692958
          9147.8893982   0.013449023284001
          2081.3505927   0.066678874640978
          587.55977067    0.23176348548844
           191.0904399    0.46945550248188
          65.732730112     0.3596824938678
 s    3 1.00
          127.25891928   -0.10723431835929
           14.83091301    0.62971616328466
          6.0653307408    0.44472317896179
 s    3 1.00
           10.44994371   -0.21694289195548
          1.7245228003    0.69457867408393
         0.71772177325    0.43298308896347
 s    1 1.00
        0.091449828308                   1
 s    1 1.00
        0.033706691021                   1
 p    5 1.00
          773.43750995  0.0091440529992506
          182.15149714   0.067887577136571
          57.547272758    0.26167978878504
          20.614988935    0.51088040113251
           7.634855789    0.33235475570224
 p    3 1.00
           3.871932799    0.33193859098144
          1.4924724132     0.5553666555499
         0.56061284958    0.23106034201617
 p    1 1.00
              0.134915                   1
 d    4 1.00
          38.968133419   0.033335938558743
          10.800067078    0.17766212505983
          3.6136457999      0.441281781625
          1.2129967888    0.57089200490673
 d    1 1.00
          0.3652439317                   1
 f    1 1.00
                 1.598                   1

4 0
 s    5 1.00
          10449.827566  0.0054265953789407
          1571.7365221   0.040626378128836
          357.12065523    0.18359747852877
          100.25185935    0.47438948768198
          30.812727554    0.43735181104122
 s    3 1.00
          51.923789434  -0.092754154848099
          5.7045760975    0.56380825544207
          2.3508376809    0.50367044629712
 s    1 1.00
         0.44605124672                   1
 s    1 1.00
          0.1684885619                   1
 p    5 1.00
          307.66790569  -0.0088797025588865
          72.102015515  -0.064284071721237
          22.532680262   -0.24288739736006
          7.8991765444   -0.48340836369878
          2.8767268321   -0.38952563875509
 p    1 1.00
         0.77459363955                   1
 p    1 1.00
         0.21037699698                   1
 d    1 1.00
                  0.65                   1

5 0
 s    5 1.00
          10449.827566  0.0054265953789407
          1571.7365221   0.040626378128836
          357.12065523    0.18359747852877
          100.25185935    0.47438948768198
          30.812727554    0.43735181104122
 s    3 1.00
          51.923789434  -0.092754154848099
          5.7045760975    0.56380825544207
          2.3508376809    0.50367044629712
 s    1 1.00
         0.44605124672                   1
 s    1 1.00
          0.1684885619                   1
 p    5 1.00
          307.66790569  -0.0088797025588865
          72.102015515  -0.064284071721237
          22.532680262   -0.24288739736006
          7.8991765444   -0.48340836369878
          2.8767268321   -0.38952563875509
 p    1 1.00
         0.77459363955                   1
 p    1 1.00
         0.21037699698                   1
 d    1 1.00
                  0.65                   1

6 0
 s    5 1.00
          10449.827566  0.0054265953789407
          1571.7365221   0.040626378128836
          357.12065523    0.18359747852877
          100.25185935    0.47438948768198
          30.812727554    0.43735181104122
 s    3 1.00
          51.923789434  -0.092754154848099
          5.7045760975    0.56380825544207
          2.3508376809    0.50367044629712
 s    1 1.00
         0.44605124672                   1
 s    1 1.00
          0.1684885619                   1
 p    5 1.00
          307.66790569  -0.0088797025588865
          72.102015515  -0.064284071721237
          22.532680262   -0.24288739736006
          7.8991765444   -0.48340836369878
          2.8767268321   -0.38952563875509
 p    1 1.00
         0.77459363955                   1
 p    1 1.00
         0.21037699698                   1
 d    1 1.00
                  0.65                   1

7 0
 s    5 1.00
          10449.827566  0.0054265953789407
          1571.7365221   0.040626378128836
          357.12065523    0.18359747852877
          100.25185935    0.47438948768198
          30.812727554    0.43735181104122
 s    3 1.00
          51.923789434  -0.092754154848099
          5.7045760975    0.56380825544207
          2.3508376809    0.50367044629712
 s    1 1.00
         0.44605124672                   1
 s    1 1.00
          0.1684885619                   1
 p    5 1.00
          307.66790569  -0.0088797025588865
          72.102015515  -0.064284071721237
          22.532680262   -0.24288739736006
          7.8991765444   -0.48340836369878
          2.8767268321   -0.38952563875509
 p    1 1.00
         0.77459363955                   1
 p    1 1.00
         0.21037699698                   1
 d    1 1.00
                  0.65                   1

8 0
 s    5 1.00
          10449.827566  0.0054265953789407
          1571.7365221   0.040626378128836
          357.12065523    0.18359747852877
          100.25185935    0.47438948768198
          30.812727554    0.43735181104122
 s    3 1.00
          51.923789434  -0.092754154848099
          5.7045760975    0.56380825544207
          2.3508376809    0.50367044629712
 s    1 1.00
         0.44605124672                   1
 s    1 1.00
          0.1684885619                   1
 p    5 1.00
          307.66790569  -0.0088797025588865
          72.102015515  -0.064284071721237
          22.532680262   -0.24288739736006
          7.8991765444   -0.48340836369878
          2.8767268321   -0.38952563875509
 p    1 1.00
         0.77459363955                   1
 p    1 1.00
         0.21037699698                   1
 d    1 1.00
                  0.65                   1

9 0
 s    5 1.00
          10449.827566  0.0054265953789407
          1571.7365221   0.040626378128836
          357.12065523    0.18359747852877
          100.25185935    0.47438948768198
          30.812727554    0.43735181104122
 s    3 1.00
          51.923789434  -0.092754154848099
          5.7045760975    0.56380825544207
          2.3508376809    0.50367044629712
 s    1 1.00
         0.44605124672                   1
 s    1 1.00
          0.1684885619                   1
 p    5 1.00
          307.66790569  -0.0088797025588865
          72.102015515  -0.064284071721237
          22.532680262   -0.24288739736006
          7.8991765444   -0.48340836369878
          2.8767268321   -0.38952563875509
 p    1 1.00
         0.77459363955                   1
 p    1 1.00
         0.21037699698                   1
 d    1 1.00
                  0.65                   1

[5d]
[7f]
[9g]

[MO]
 Sym= A
 Ene=               0
 Spin= Alpha
 Occup=    1.00000
   1    0.0082235077214349
   2     -0.02284321592946
   3      0.11725533683342
   4    0.0075734434348013
   5    -0.0028494631581104
   6    0.0097161186519177
   7    -0.0003103255680868
   8    0.0046504235554723
   9    -0.033172594706979
  10    0.00099271629942828
  11    -0.015777589703421
  12     0.036055563524993
  13    -0.0019392731219856
  14     0.033272768192899
  15     0.011495465603344
  16    -0.033040581636799
  17    -0.0038522015965117
  18    -0.031900789152663
  19    -0.0013217019824535
  20    0.0074933702871943
  21    -0.023959655935054
  22    -0.0042219108241337
  23    -0.020942053848596
  24    -0.00097991027764845
  25    -0.0012839508255491
  26    -0.00067709452803438
  27    -0.00052410428735507
  28    0.0021194394596693
  29    7.5942688418143e-05
  30    0.0021706282282792
  31    -0.00018272137700136
  32      0.17972136435602
  33      -0.5104009215145
  34     -0.38419697553642
  35    2.3931398142175e-16
  36    -1.2196512421476e-15
  37     0.043253213975859
  38    6.0684152030415e-16
  39    -7.8406171384678e-16
  40     0.028758352585342
  41    0.0062715793745148
  42    1.1981530011234e-17
  43    -2.2982679615939e-17
  44    -0.011584923164488
  45    0.00018019925017401
  46     0.008223507721435
  47    -0.022843215929461
  48      0.11725533683342
  49    0.0075734434348012
  50    -0.0028494631581101
  51    -0.0097161186519178
  52    0.0003103255680864
  53    0.0046504235554724
  54      0.03317259470698
  55    -0.00099271629942706
  56    -0.015777589703422
  57    -0.036055563524993
  58    0.0019392731219855
  59       0.0332727681929
  60     0.011495465603344
  61     0.033040581636799
  62    0.0038522015965122
  63    -0.031900789152663
  64    -0.0013217019824544
  65    0.0074933702871941
  66     0.023959655935054
  67    0.0042219108241338
  68    -0.020942053848596
  69    -0.00097991027764917
  70    -0.0012839508255491
  71    0.00067709452803439
  72    0.00052410428735507
  73    0.0021194394596694
  74    7.5942688418146e-05
  75    -0.0021706282282792
  76    0.00018272137700135
  77    0.0028351893526089
  78    -0.019270700057883
  79     0.039382718633521
  80     0.014436158113962
  81    0.0012227609814025
  82    0.0086722116360419
  83    -0.013372475122107
  84     0.002700941488578
  85     0.017001048762839
  86    -0.026291239872623
  87    0.0012365989621071
  88     0.019506065847222
  89    -0.031715798689565
  90    0.0015927010413668
  91    0.00020246328289991
  92    -0.0019604097322013
  93    -0.00057604452003592
  94    -0.00021751893335438
  95     0.002480689317185
  96    -0.016681039409121
  97     0.032810289677685
  98     0.023348653830037
  99    -0.0062482530477633
 100    0.0059207345113522
 101     0.010665214057087
 102    -0.010995550918271
 103     0.011107689373144
 104      0.02007598097694
 105     -0.02023567357649
 106     0.017197141101794
 107     0.028069519393717
 108    0.0010785724105079
 109    -0.002058455270538
 110     0.001761642668785
 111    -0.00032488100820801
 112    -0.0011823930286879
 113     0.002450261661148
 114     -0.01649047922506
 115     0.032374314344145
 116     0.021727743167217
 117    -0.004957254519986
 118    -0.012165810590894
 119     0.004006491350062
 120    -0.0086249050199509
 121    -0.022906555887353
 122     0.007555444310995
 123     -0.01633517209532
 124    -0.033780726070239
 125    0.0088308928483107
 126    -0.00086507101465442
 127    -0.00061576196868613
 128    -0.0011500427854191
 129    -0.0021571577721804
 130    0.00092054466662897
 131    0.0028351893526089
 132    -0.019270700057883
 133      0.03938271863352
 134     0.014436158113962
 135    -0.0012227609814032
 136    -0.0086722116360411
 137    -0.013372475122108
 138    -0.0027009414885794
 139    -0.017001048762837
 140    -0.026291239872624
 141    -0.0012365989621092
 142     -0.01950606584722
 143    -0.031715798689567
 144    0.0015927010413668
 145    -0.00020246328289984
 146    0.0019604097322012
 147    -0.00057604452003589
 148    -0.00021751893335434
 149     0.002480689317185
 150    -0.016681039409121
 151     0.032810289677684
 152     0.023348653830036
 153    0.0062482530477632
 154    -0.0059207345113511
 155     0.010665214057088
 156     0.010995550918271
 157    -0.011107689373142
 158     0.020075980976941
 159      0.02023567357649
 160    -0.017197141101791
 161     0.028069519393719
 162     0.001078572410508
 163     0.002058455270538
 164    -0.0017616426687849
 165    -0.00032488100820797
 166    -0.0011823930286879
 167     0.002450261661148
 168     -0.01649047922506
 169     0.032374314344145
 170     0.021727743167217
 171    0.0049572545199867
 172     0.012165810590894
 173    0.0040064913500623
 174    0.0086249050199523
 175     0.022906555887353
 176    0.0075554443109955
 177     0.016335172095323
 178     0.033780726070238
 179    0.0088308928483115
 180    -0.00086507101465441
 181    0.00061576196868616
 182    0.0011500427854191
 183    -0.0021571577721803
 184    0.00092054466662905
 Sym= B
 Ene=               1
 Spin= Alpha
 Occup=    1.00000
   1    -0.0010630663404707
   2    0.0017753635267889
   3    -0.019810393455706
   4     0.045746203319574
   5    -0.0088735566522351
   6     0.012036484115457
   7    -0.0035091592371768
   8    0.0047189823360282
   9    -0.039240361606125
  10     0.012653300114538
  11    -0.015281142895596
  12    -0.030247686603541
  13     -0.10314871724233
  14    -0.0072129852758565
  15    -0.019818046056954
  16     0.032992692087977
  17     0.029179549961966
  18     0.036868427149785
  19     0.096744696696161
  20    -0.0067428912679591
  21     0.015349082119046
  22     0.017678521993677
  23     0.018399949260665
  24     0.061257688619181
  25    0.00092536868988719
  26    0.00054961284908892
  27    0.00077281863711284
  28    -0.0013470640608024
  29    -0.001696597984171
  30    -0.0013004960118426
  31    -0.0037489676219814
  32    -3.4204071650852e-15
  33    -5.8466914776252e-16
  34    -4.8770963745043e-16
  35      0.17757841661737
  36     -0.51531500359617
  37    2.8354217518094e-14
  38      0.14509563263496
  39     -0.44075577397623
  40    2.459377650596e-14
  41    6.2888866220986e-16
  42    0.0045819872374169
  43    -0.010555382497389
  44    7.8562726849601e-17
  45    5.8159821221884e-18
  46    0.0010630663404704
  47    -0.0017753635267883
  48     0.019810393455702
  49    -0.045746203319569
  50     0.008873556652232
  51     0.012036484115456
  52    -0.0035091592371768
  53    -0.0047189823360276
  54    -0.039240361606124
  55     0.012653300114538
  56     0.015281142895594
  57    -0.030247686603534
  58     -0.10314871724233
  59    0.0072129852758669
  60     0.019818046056947
  61     0.032992692087982
  62     0.029179549961967
  63    -0.036868427149778
  64    -0.096744696696161
  65    0.0067428912679554
  66     0.015349082119049
  67     0.017678521993677
  68    -0.018399949260661
  69    -0.061257688619181
  70    -0.00092536868988728
  71    0.00054961284908854
  72    0.00077281863711283
  73    0.0013470640608025
  74    0.0016965979841709
  75    -0.0013004960118424
  76    -0.0037489676219814
  77    -0.00055758273315517
  78    0.0036683140781434
  79    -0.0087594297890751
  80    -0.021078820548068
  81    -0.0018661319674227
  82    -0.0029377456306173
  83    -0.00014779059024297
  84    -0.0026222801314978
  85    -0.0051842351301787
  86    -0.0020060998085547
  87    -0.0041792403027413
  88    -0.0069459897158589
  89     0.011261291559697
  90    0.00043127413914907
  91    0.0025710146316292
  92    0.00052356106246997
  93    0.0011804936871378
  94    -0.00019655122348191
  95    -2.2997243349061e-05
  96    4.5076040205808e-05
  97    -0.005148683428264
  98    -0.010995273851508
  99    -0.0019821218218445
 100    -5.6511709361054e-05
 101    0.0018305843489475
 102    -0.0039352558065451
 103    -0.0002567652336741
 104    0.0055280000421257
 105    -0.001074005554378
 106    0.0054380865963233
 107    -4.004265421209e-05
 108    -0.0016123776744112
 109    -0.0014476288468703
 110    0.00017949652616294
 111    0.0024143470571646
 112    -0.00058998634389228
 113    -0.0013369724769876
 114    0.0091781931733962
 115    -0.019549086228341
 116    0.0055347070856764
 117    -0.010102719216931
 118     0.010292910339963
 119    -0.0084000315104877
 120    -0.018820069942739
 121     0.021442140513785
 122    -0.016400205372762
 123    -0.027874738926673
 124     0.015800936418282
 125    -0.016703787723068
 126    0.0012333755735848
 127    0.00011934847051739
 128    3.1026944613693e-05
 129    -0.002075170589654
 130    -0.0023487446258643
 131    0.00055758273315516
 132    -0.0036683140781435
 133    0.0087594297890748
 134     0.021078820548067
 135    -0.0018661319674233
 136    -0.0029377456306176
 137    0.00014779059024273
 138    -0.002622280131499
 139    -0.0051842351301795
 140     0.002006099808554
 141    -0.0041792403027433
 142    -0.0069459897158588
 143    -0.011261291559697
 144    -0.00043127413914909
 145    0.0025710146316288
 146    0.00052356106247007
 147    -0.0011804936871376
 148    0.00019655122348172
 149    2.2997243348966e-05
 150    -4.5076040203855e-05
 151    0.0051486834282598
 152     0.010995273851509
 153    -0.0019821218218442
 154    -5.6511709360118e-05
 155    -0.0018305843489493
 156    -0.0039352558065449
 157    -0.00025676523367206
 158    -0.0055280000421295
 159    -0.0010740055543768
 160    0.0054380865963249
 161    4.0042654207688e-05
 162    0.0016123776744113
 163    -0.0014476288468705
 164     0.000179496526163
 165    -0.0024143470571648
 166    0.00058998634389245
 167    0.0013369724769874
 168    -0.0091781931733954
 169     0.019549086228339
 170    -0.0055347070856754
 171    -0.010102719216931
 172     0.010292910339963
 173    0.0084000315104872
 174    -0.018820069942739
 175     0.021442140513783
 176     0.016400205372761
 177    -0.027874738926673
 178     0.015800936418281
 179     0.016703787723066
 180    -0.0012333755735848
 181    0.00011934847051751
 182    3.1026944613746e-05
 183    0.0020751705896541
 184    0.0023487446258643
 Sym= B
 Ene=               2
 Spin= Alpha
 Occup=    1.00000
   1    -0.0021252748926257
   2    0.0029654626763675
   3    -0.042018794315538
   4      0.10195712307076
   5     -0.03216669673389
   6     0.028625015282238
   7    0.0019491327317376
   8     0.010664549542437
   9    -0.093253698349821
  10    -0.0067047443333575
  11    -0.034464449725855
  12    -0.080794139647297
  13     0.039494513707598
  14    -0.028415721007609
  15    -0.045047057495343
  16     0.080219482616316
  17    -0.0049113202131311
  18      0.10626613424949
  19    -0.034417293983341
  20    -0.023021380747111
  21     0.037137241139964
  22    -0.0034300877678344
  23     0.049319416117124
  24    -0.021115713004572
  25    0.0022805010966704
  26    0.0011516268370877
  27    0.00012000717953414
  28    -0.0033937264375987
  29    0.0006856394922359
  30    -0.0037226329032941
  31    0.0015295542466351
  32    1.1173044789884e-15
  33    2.6775095542288e-18
  34    -3.592207689956e-17
  35       0.4639092444031
  36      0.19795230043608
  37    -8.4421478171495e-15
  38      0.37466543576799
  39      0.16853042832412
  40    -7.3158589223846e-15
  41    -1.8460450868053e-16
  42     0.012196726092612
  43    0.0041185393784774
  44    -3.0640201612935e-17
  45    -3.1757816323118e-18
  46    0.0021252748926257
  47    -0.0029654626763677
  48     0.042018794315539
  49     -0.10195712307076
  50     0.032166696733891
  51     0.028625015282238
  52    0.0019491327317376
  53    -0.010664549542437
  54    -0.093253698349822
  55    -0.0067047443333575
  56     0.034464449725856
  57    -0.080794139647299
  58     0.039494513707598
  59     0.028415721007606
  60     0.045047057495345
  61     0.080219482616314
  62    -0.0049113202131311
  63     -0.10626613424949
  64     0.034417293983341
  65     0.023021380747112
  66     0.037137241139963
  67    -0.0034300877678343
  68    -0.049319416117125
  69     0.021115713004572
  70    -0.0022805010966704
  71    0.0011516268370878
  72    0.00012000717953414
  73    0.0033937264375987
  74    -0.00068563949223589
  75    -0.0037226329032942
  76    0.0015295542466351
  77    -0.0030947185903725
  78      0.02148925840856
  79    -0.046562742594483
  80    -0.024511247595343
  81    -0.020316030317706
  82     -0.01183171249278
  83     0.012237349453853
  84    -0.037309371954195
  85     -0.02296687247038
  86      0.02582266979043
  87    -0.049651163672724
  88    -0.035417286207904
  89     0.034044156117932
  90    -0.00079884442094856
  91    0.0011246120577644
  92    0.0013087026491961
  93    0.00058438611765995
  94    -0.00088337686513516
  95    -0.0017652494179754
  96     0.012272536945867
  97    -0.035363677823435
  98    -0.0071503670205864
  99    -0.0084160462259592
 100    -0.0029587956886308
 101    -0.012663040782777
 102    -0.014187398785847
 103    -0.0057646020333085
 104    -0.023912948002109
 105     -0.02262785489144
 106    -0.0071942604101545
 107    -0.027640250689406
 108    -0.0016071012014878
 109    -0.00084664543057995
 110    5.4012686573197e-05
 111    0.0017327039121153
 112    -0.0015479252412199
 113    -0.00074095956589142
 114    0.0053517210819783
 115    -0.022575588882981
 116    -0.016348944807584
 117    -0.0073924488111801
 118    0.00032196124145669
 119    -0.0048411057506225
 120    -0.012752882493887
 121    0.00051377886502013
 122    -0.0079564632881648
 123    -0.012904291581389
 124    0.0044719008857586
 125    -0.014075350986488
 126    -0.0023070607427003
 127    1.4230581430587e-05
 128    0.00059850625498831
 129     0.001370451688372
 130    0.0044478942773708
 131    0.0030947185903725
 132     -0.02148925840856
 133     0.046562742594483
 134     0.024511247595344
 135    -0.020316030317706
 136     -0.01183171249278
 137    -0.012237349453853
 138    -0.037309371954194
 139     -0.02296687247038
 140    -0.025822669790429
 141    -0.049651163672723
 142    -0.035417286207904
 143    -0.034044156117932
 144    0.00079884442094856
 145    0.0011246120577645
 146    0.0013087026491961
 147     -0.00058438611766
 148    0.00088337686513522
 149    0.0017652494179754
 150    -0.012272536945868
 151     0.035363677823436
 152    0.0071503670205861
 153    -0.0084160462259593
 154    -0.0029587956886311
 155     0.012663040782778
 156    -0.014187398785847
 157    -0.0057646020333091
 158      0.02391294800211
 159     -0.02262785489144
 160    -0.007194260410155
 161     0.027640250689407
 162    0.0016071012014878
 163    -0.00084664543057992
 164    5.4012686573177e-05
 165    -0.0017327039121152
 166    0.0015479252412198
 167    0.00074095956589149
 168    -0.0053517210819785
 169     0.022575588882981
 170     0.016348944807583
 171    -0.0073924488111802
 172    0.00032196124145686
 173    0.0048411057506226
 174    -0.012752882493887
 175    0.00051377886502049
 176     0.007956463288165
 177     -0.01290429158139
 178    0.0044719008857587
 179     0.014075350986488
 180    0.0023070607427003
 181    1.4230581430549e-05
 182    0.00059850625498829
 183    -0.001370451688372
 184    -0.0044478942773708
 Sym= A
 Ene=               3
 Spin= Alpha
 Occup=    1.00000
   1    -0.0020207588618943
   2    0.0047811727468366
   3    -0.032201909839024
   4     0.045340631985215
   5    -0.029305723847743
   6    0.0045072715144926
   7    0.00015188262976835
   8    0.0057357510334392
   9    -0.013763178300597
  10    -0.00043398009431396
  11    -0.019710988313327
  12    -0.066811028964201
  13    -0.0022945003025175
  14      0.09947801909438
  15    -0.068243629059939
  16    -0.049824909812434
  17    0.0010268938684485
  18     0.071517309892046
  19    -0.00014368415150102
  20    -0.036861135931313
  21    -0.036898160774731
  22    -0.0031559179599392
  23     0.037588115076626
  24    0.0003477031269772
  25    -0.00089692871183469
  26    0.0035246101456077
  27    0.00011245577552644
  28    0.0015108839115586
  29    -0.00029229974421434
  30    -0.0023664285081245
  31    0.00017709589914411
  32    -0.059735617787807
  33    -0.016690271510979
  34    -0.017399037934969
  35    -2.1422411474287e-15
  36    2.9871869052392e-14
  37      0.53835692075068
  38    -1.9552067832035e-15
  39    2.5374862789794e-14
  40      0.45962554282111
  41     0.012026707052614
  42    -5.2602586150766e-17
  43    6.1163652923085e-16
  44    0.0012193988238874
  45    0.00013224349479236
  46    -0.0020207588618943
  47    0.0047811727468367
  48    -0.032201909839025
  49     0.045340631985216
  50    -0.029305723847743
  51    -0.0045072715144931
  52    -0.00015188262976794
  53    0.0057357510334394
  54     0.013763178300598
  55    0.0004339800943125
  56    -0.019710988313327
  57     0.066811028964202
  58    0.0022945003025295
  59      0.09947801909438
  60     -0.06824362905994
  61     0.049824909812433
  62    -0.0010268938684512
  63     0.071517309892046
  64    -0.00014368415148953
  65    -0.036861135931313
  66     0.036898160774731
  67    0.0031559179599373
  68     0.037588115076626
  69    0.00034770312698425
  70    -0.00089692871183466
  71    -0.0035246101456078
  72    -0.00011245577552651
  73    0.0015108839115585
  74    -0.00029229974421454
  75    0.0023664285081245
  76    -0.00017709589914367
  77    0.00030088590869686
  78    -0.002371828053811
  79    -0.0013617669124073
  80    -0.010170283924603
  81    0.0062766889831362
  82    0.0033936890358422
  83    -0.0031717112677807
  84     0.012014341558914
  85    0.0090332749179921
  86    -0.0090653135270468
  87      0.01960937089498
  88    0.0011875077970347
  89    -0.0027256488142416
  90    -0.00015969870524069
  91    0.0031125011870398
  92    -0.0011039857972217
  93    0.0015117297749246
  94    -0.0017431231417256
  95    -0.0026210486594559
  96     0.018380520175218
  97    -0.039175972816994
  98     0.010998157220428
  99    -0.0020056966093772
 100      -0.0091006345277
 101    -0.017511664082014
 102    -0.0017416171936759
 103    -0.019730330048747
 104    -0.035789017041183
 105    -0.011367341692219
 106    -0.015438743969097
 107    -0.042242420483245
 108    0.00040035759152147
 109    0.0010640671762041
 110    -0.0006242153122606
 111    -0.0018264541564877
 112    0.0015616491293955
 113    -0.0010117746410938
 114     0.007025752630799
 115    -0.019267244248078
 116    0.0096573494484186
 117    -0.0032003197462732
 118    0.0064107813537816
 119    -0.004260172818581
 120    -0.0062501724934014
 121     0.013380708263127
 122    -0.0073631303702612
 123    -0.0072851380795443
 124    0.0067237386311177
 125    -0.015837687346794
 126    5.1422447873213e-05
 127    -0.0011728041745224
 128    -0.00053235532282435
 129    0.00025507652033854
 130    -0.00044834404230931
 131    0.0003008859086969
 132    -0.0023718280538113
 133    -0.0013617669124067
 134    -0.010170283924604
 135    -0.0062766889831367
 136    -0.0033936890358421
 137    -0.0031717112677812
 138    -0.012014341558915
 139    -0.0090332749179921
 140    -0.0090653135270479
 141    -0.019609370894981
 142    -0.0011875077970348
 143    -0.0027256488142416
 144    -0.00015969870524061
 145    -0.0031125011870401
 146    0.0011039857972216
 147    0.0015117297749247
 148    -0.0017431231417256
 149    -0.0026210486594559
 150     0.018380520175217
 151    -0.039175972816993
 152     0.010998157220427
 153    0.0020056966093772
 154       0.0091006345277
 155    -0.017511664082013
 156    0.0017416171936759
 157     0.019730330048747
 158    -0.035789017041181
 159     0.011367341692218
 160     0.015438743969097
 161    -0.042242420483244
 162    0.00040035759152136
 163    -0.001064067176204
 164    0.00062421531226059
 165    -0.0018264541564875
 166    0.0015616491293955
 167    -0.0010117746410939
 168    0.0070257526307997
 169    -0.019267244248079
 170    0.0096573494484197
 171    0.0032003197462741
 172    -0.0064107813537827
 173    -0.0042601728185817
 174    0.0062501724934031
 175     -0.01338070826313
 176    -0.0073631303702626
 177    0.0072851380795469
 178    -0.0067237386311193
 179    -0.015837687346796
 180    5.1422447873409e-05
 181    0.0011728041745224
 182    0.00053235532282437
 183    0.00025507652033829
 184    -0.00044834404230968
 Sym= B
 Ene=               4
 Spin= Alpha
 Occup=    1.00000