[Molden Format]
made by pyscf v[2.1.1]
[Atoms] (AU)
Fe   1   26     3.17068844873907     0.00098706064664     0.12237737881307
O   2   8     0.00000000000000     0.00000000000000    -0.89004350580623
Fe   3   26    -3.17068844873907    -0.00098706064664     0.12237737881307
Cl   4   17     3.53383895113107    -2.07485195383062     3.76228752659000
Cl   5   17     5.54152580550813    -1.85590924879884    -2.78672786652360
Cl   6   17     4.48169216485503     3.92976278472880    -0.95330240907949
Cl   7   17    -3.53383895113107     2.07485195383062     3.76228752659000
Cl   8   17    -5.54152580550813     1.85590924879884    -2.78672786652360
Cl   9   17    -4.48169216485503    -3.92976278472880    -0.95330240907949
[GTO]
1 0
 s    6 1.00
          60923.640643  0.0017552243692958
          9147.8893982   0.013449023284001
          2081.3505927   0.066678874640978
          587.55977067    0.23176348548844
           191.0904399    0.46945550248188
          65.732730112     0.3596824938678
 s    3 1.00
          127.25891928   -0.10723431835929
           14.83091301    0.62971616328466
          6.0653307408    0.44472317896179
 s    3 1.00
           10.44994371   -0.21694289195548
          1.7245228003    0.69457867408393
         0.71772177325    0.43298308896347
 s    1 1.00
        0.091449828308                   1
 s    1 1.00
        0.033706691021                   1
 p    5 1.00
          773.43750995  0.0091440529992506
          182.15149714   0.067887577136571
          57.547272758    0.26167978878504
          20.614988935    0.51088040113251
           7.634855789    0.33235475570224
 p    3 1.00
           3.871932799    0.33193859098144
          1.4924724132     0.5553666555499
         0.56061284958    0.23106034201617
 p    1 1.00
              0.134915                   1
 d    4 1.00
          38.968133419   0.033335938558743
          10.800067078    0.17766212505983
          3.6136457999      0.441281781625
          1.2129967888    0.57089200490673
 d    1 1.00
          0.3652439317                   1
 f    1 1.00
                 1.598                   1

2 0
 s    5 1.00
          2266.1767785  -0.0053893503921743
          340.87010191   -0.04023472138896
          77.363135167   -0.18008184205526
           21.47964494   -0.46828857657651
          6.6589433124   -0.44692617160187
 s    1 1.00
         0.80975975668                   1
 s    1 1.00
         0.25530772234                   1
 p    3 1.00
          17.721504317   0.062630248763161
           3.863550544    0.33331138482352
          1.0480920883    0.74148638308122
 p    1 1.00
         0.27641544411                   1
 d    1 1.00
                   1.2                   1

3 0
 s    6 1.00
          60923.640643  0.0017552243692958
          9147.8893982   0.013449023284001
          2081.3505927   0.066678874640978
          587.55977067    0.23176348548844
           191.0904399    0.46945550248188
          65.732730112     0.3596824938678
 s    3 1.00
          127.25891928   -0.10723431835929
           14.83091301    0.62971616328466
          6.0653307408    0.44472317896179
 s    3 1.00
           10.44994371   -0.21694289195548
          1.7245228003    0.69457867408393
         0.71772177325    0.43298308896347
 s    1 1.00
        0.091449828308                   1
 s    1 1.00
        0.033706691021                   1
 p    5 1.00
          773.43750995  0.0091440529992506
          182.15149714   0.067887577136571
          57.547272758    0.26167978878504
          20.614988935    0.51088040113251
           7.634855789    0.33235475570224
 p    3 1.00
           3.871932799    0.33193859098144
          1.4924724132     0.5553666555499
         0.56061284958    0.23106034201617
 p    1 1.00
              0.134915                   1
 d    4 1.00
          38.968133419   0.033335938558743
          10.800067078    0.17766212505983
          3.6136457999      0.441281781625
          1.2129967888    0.57089200490673
 d    1 1.00
          0.3652439317                   1
 f    1 1.00
                 1.598                   1

4 0
 s    5 1.00
          10449.827566  0.0054265953789407
          1571.7365221   0.040626378128836
          357.12065523    0.18359747852877
          100.25185935    0.47438948768198
          30.812727554    0.43735181104122
 s    3 1.00
          51.923789434  -0.092754154848099
          5.7045760975    0.56380825544207
          2.3508376809    0.50367044629712
 s    1 1.00
         0.44605124672                   1
 s    1 1.00
          0.1684885619                   1
 p    5 1.00
          307.66790569  -0.0088797025588865
          72.102015515  -0.064284071721237
          22.532680262   -0.24288739736006
          7.8991765444   -0.48340836369878
          2.8767268321   -0.38952563875509
 p    1 1.00
         0.77459363955                   1
 p    1 1.00
         0.21037699698                   1
 d    1 1.00
                  0.65                   1

5 0
 s    5 1.00
          10449.827566  0.0054265953789407
          1571.7365221   0.040626378128836
          357.12065523    0.18359747852877
          100.25185935    0.47438948768198
          30.812727554    0.43735181104122
 s    3 1.00
          51.923789434  -0.092754154848099
          5.7045760975    0.56380825544207
          2.3508376809    0.50367044629712
 s    1 1.00
         0.44605124672                   1
 s    1 1.00
          0.1684885619                   1
 p    5 1.00
          307.66790569  -0.0088797025588865
          72.102015515  -0.064284071721237
          22.532680262   -0.24288739736006
          7.8991765444   -0.48340836369878
          2.8767268321   -0.38952563875509
 p    1 1.00
         0.77459363955                   1
 p    1 1.00
         0.21037699698                   1
 d    1 1.00
                  0.65                   1

6 0
 s    5 1.00
          10449.827566  0.0054265953789407
          1571.7365221   0.040626378128836
          357.12065523    0.18359747852877
          100.25185935    0.47438948768198
          30.812727554    0.43735181104122
 s    3 1.00
          51.923789434  -0.092754154848099
          5.7045760975    0.56380825544207
          2.3508376809    0.50367044629712
 s    1 1.00
         0.44605124672                   1
 s    1 1.00
          0.1684885619                   1
 p    5 1.00
          307.66790569  -0.0088797025588865
          72.102015515  -0.064284071721237
          22.532680262   -0.24288739736006
          7.8991765444   -0.48340836369878
          2.8767268321   -0.38952563875509
 p    1 1.00
         0.77459363955                   1
 p    1 1.00
         0.21037699698                   1
 d    1 1.00
                  0.65                   1

7 0
 s    5 1.00
          10449.827566  0.0054265953789407
          1571.7365221   0.040626378128836
          357.12065523    0.18359747852877
          100.25185935    0.47438948768198
          30.812727554    0.43735181104122
 s    3 1.00
          51.923789434  -0.092754154848099
          5.7045760975    0.56380825544207
          2.3508376809    0.50367044629712
 s    1 1.00
         0.44605124672                   1
 s    1 1.00
          0.1684885619                   1
 p    5 1.00
          307.66790569  -0.0088797025588865
          72.102015515  -0.064284071721237
          22.532680262   -0.24288739736006
          7.8991765444   -0.48340836369878
          2.8767268321   -0.38952563875509
 p    1 1.00
         0.77459363955                   1
 p    1 1.00
         0.21037699698                   1
 d    1 1.00
                  0.65                   1

8 0
 s    5 1.00
          10449.827566  0.0054265953789407
          1571.7365221   0.040626378128836
          357.12065523    0.18359747852877
          100.25185935    0.47438948768198
          30.812727554    0.43735181104122
 s    3 1.00
          51.923789434  -0.092754154848099
          5.7045760975    0.56380825544207
          2.3508376809    0.50367044629712
 s    1 1.00
         0.44605124672                   1
 s    1 1.00
          0.1684885619                   1
 p    5 1.00
          307.66790569  -0.0088797025588865
          72.102015515  -0.064284071721237
          22.532680262   -0.24288739736006
          7.8991765444   -0.48340836369878
          2.8767268321   -0.38952563875509
 p    1 1.00
         0.77459363955                   1
 p    1 1.00
         0.21037699698                   1
 d    1 1.00
                  0.65                   1

9 0
 s    5 1.00
          10449.827566  0.0054265953789407
          1571.7365221   0.040626378128836
          357.12065523    0.18359747852877
          100.25185935    0.47438948768198
          30.812727554    0.43735181104122
 s    3 1.00
          51.923789434  -0.092754154848099
          5.7045760975    0.56380825544207
          2.3508376809    0.50367044629712
 s    1 1.00
         0.44605124672                   1
 s    1 1.00
          0.1684885619                   1
 p    5 1.00
          307.66790569  -0.0088797025588865
          72.102015515  -0.064284071721237
          22.532680262   -0.24288739736006
          7.8991765444   -0.48340836369878
          2.8767268321   -0.38952563875509
 p    1 1.00
         0.77459363955                   1
 p    1 1.00
         0.21037699698                   1
 d    1 1.00
                  0.65                   1

[5d]
[7f]
[9g]

[MO]
 Sym= A
 Ene=               0
 Spin= Alpha
 Occup=    1.00000
   1    -0.0054535410253109
   2     0.018129964140199
   3    -0.066160385450181
   4    -0.009855836414228
   5    -0.0032526500146682
   6    -0.043454759859699
   7    -0.0004914587132972
   8    -0.018625939058526
   9      0.14431525338019
  10    0.0015554614540086
  11     0.060848778940369
  12     0.014394111600413
  13    -0.0036874203204355
  14     0.015196276301262
  15     -0.00485792697951
  16     0.016375842015941
  17    0.0016934170166491
  18     0.017735434101787
  19    -0.0020931908134084
  20    -0.0016225845472254
  21    0.0055748862012361
  22    -6.7864537986196e-05
  23    0.0067196467175139
  24    -0.0015938611683144
  25    0.0001170758960491
  26    1.815052781873e-05
  27    5.3119699243211e-05
  28    -0.00024168668636824
  29    -5.6264473046959e-05
  30    -2.6954844025107e-05
  31    6.6000090723792e-05
  32     -0.05560432386539
  33    -0.096946494033347
  34    -0.081083843512361
  35     0.070286552261749
  36    0.0029325605047819
  37    -0.012852035694989
  38     0.079508822048565
  39    0.0014858007480729
  40    -0.015822712131666
  41    0.0015906375076517
  42    0.0031467031472629
  43    -8.5289458291328e-06
  44     -0.00413910576767
  45    -5.6037789170041e-05
  46    -0.014312787774484
  47     0.033837466849072
  48     -0.22719121531432
  49     -0.27083578440317
  50     0.071785221281775
  51    -0.041620728388944
  52    -0.00090236774522481
  53     0.016259164580258
  54      0.13823839617268
  55    0.0027708962685695
  56    -0.053180650990263
  57     0.064831486927633
  58    0.0009463883243641
  59    -0.024669324220178
  60    -0.0086385541721491
  61    -0.0069870825390744
  62    -0.022638684724602
  63    0.0063114963667598
  64    0.0016714644723134
  65    -0.011099907984129
  66    -0.012850560190012
  67    -0.015965658182129
  68     0.016033452908154
  69    0.0011067210929411
  70    -0.0021531729179902
  71    0.0013521767617148
  72    -0.0027733138530383
  73    0.0014503532605446
  74    -0.00038766471108456
  75    -0.0023412444829482
  76    -0.00087474947442595
  77    0.00054215451263085
  78    -0.0043438892888947
  79     0.018880875347238
  80    0.0023476255132015
  81     0.020714758818291
  82    0.0045747305610455
  83    0.0011768074617046
  84     0.036544671320228
  85    0.0095823510954963
  86    -0.00017935531515558
  87     0.057837004065587
  88     0.011969335739214
  89    0.0031207125788473
  90    -1.0275433041114e-05
  91    -0.0017946209229781
  92    -0.00044446636692806
  93    -0.0004145529398518
  94      0.00118666431496
  95    0.00029150310001466
  96    -0.0026732528767237
  97     0.013685518617577
  98     0.014005363971146
  99     0.015711780837196
 100    -0.0014173260760061
 101    0.0053147711517616
 102     0.026031394030012
 103    -0.001830651668009
 104     0.010743073837372
 105     0.037793514699172
 106    -0.00059797226691489
 107     0.017288800856032
 108    0.00087254463973847
 109    0.00056784585975913
 110    0.00032417592942153
 111    -0.0002276487218577
 112    0.00042158738701753
 113    -0.00067676293005586
 114     0.003898140320216
 115    0.0038399289452201
 116    0.0047804358878839
 117     0.017805168286276
 118    0.0065311573587596
 119    0.0060472254763692
 120     0.030544774006134
 121     0.010681950285581
 122      0.01101630092422
 123     0.046619941391103
 124     0.013763869211901
 125     0.015743561593442
 126    0.00053448314562624
 127    0.00059536290548275
 128    -6.0012870370247e-05
 129    0.00044447983808845
 130    -0.0012672540998214
 131    -0.015215756444555
 132      0.10591165270417
 133     -0.21678065934436
 134     -0.12168881311002
 135    0.0021104615043944
 136     0.037190401899213
 137     0.060309131887275
 138    0.0014469821282808
 139     0.078622102637372
 140      0.13062361832615
 141    -0.0002873849150276
 142       0.1055316448936
 143      0.17194852135677
 144    -0.011898683516205
 145    0.0011285582568241
 146     -0.01491797402977
 147    0.0045662615917497
 148    0.00071104841714385
 149    -0.012888624852257
 150     0.089786101758991
 151     -0.19157133695445
 152     -0.10613127451947
 153    -0.023988529913182
 154     0.024873693972441
 155     -0.04413559786358
 156    -0.054613383325258
 157     0.054906188083547
 158    -0.093045561425442
 159    -0.074295351318066
 160     0.067629960532557
 161     -0.12162190102558
 162    -0.0052882974787127
 163    -0.011376770739275
 164    0.0095532614000797
 165    -0.00081575204781605
 166    0.0069303930121253
 167     -0.01306536904709
 168       0.0910583033573
 169     -0.19071480427783
 170     -0.10764812628194
 171    -0.011464096159227
 172    -0.054872359438699
 173    -0.020047299648381
 174    -0.027406865910019
 175     -0.11900155438521
 176    -0.039544503146786
 177     -0.03932086430955
 178     -0.15484363510662
 179     -0.05705922319515
 180    0.0059080775184358
 181    -0.002198015593385
 182    -0.0077434979025741
 183     0.011328916685637
 184    -0.0067386012942229
 Sym= A
 Ene=               1
 Spin= Alpha
 Occup=    1.00000
   1    -0.001060614212786
   2    0.0031564884972064
   3    -0.014167210700966
   4     0.016659284350181
   5    -0.0068392517512028
   6    -0.0049682754685235
   7    0.00041544246043575
   8    0.0022076432931793
   9       0.0158588124149
  10    -0.0013057777757196
  11    -0.0070745969962228
  12    -0.015405182054657
  13    0.0014569395565761
  14     0.021563170583321
  15    -0.0012549273297662
  16    -0.002312600002279
  17    0.0011689120835667
  18    0.0012744412866335
  19    -0.00061983787282513
  20    -0.0026645669883182
  21    -0.005597248101098
  22    -0.00018537504734917
  23    0.0014254323032984
  24    -0.00092620970955027
  25    -0.00012106564010462
  26    0.00089892623448405
  27    4.4619150200603e-05
  28    0.00025451012036875
  29    5.5407838218019e-05
  30    -0.00061862267452798
  31    9.4572602242339e-05
  32    -0.0016390232976472
  33    -0.0064303957264607
  34    0.0031142840792356
  35    0.0087847072404188
  36     0.010011651984033
  37      0.11335875217842
  38     0.010143447031262
  39    0.0092178052200047
  40      0.11251787706681
  41    0.0012075631128745
  42    0.0027257897090966
  43    0.00033382643812531
  44    0.00081531025215303
  45    0.00034688708198868
  46    -1.935149915851e-05
  47    9.5901568237796e-05
  48    -8.963598316681e-05
  49    -0.0033696844838437
  50    -0.0061516345254558
  51    -0.00022550334091289
  52    0.0020936338295782
  53    -0.008219994631743
  54    0.00065871740579972
  55    -0.0064925312805502
  56     0.025971458416634
  57    -0.0025221018942479
  58     0.012286428807197
  59      -0.0168759521365
  60      0.39368692586083
  61      -0.6032772460792
  62      0.41297375716014
  63     -0.26764729017453
  64     0.018129406772127
  65      0.10162658719394
  66     -0.15514720317064
  67      0.10729028602116
  68     -0.06852586200162
  69    0.0036689758533146
  70    -0.00035356718092307
  71    -0.0029018993247274
  72    0.00033977442340846
  73    0.0011268839607458
  74    3.1676195790506e-05
  75    0.0010396386945497
  76    0.00028971584590145
  77    -0.00035967443883427
  78    0.0024125950546762
  79    -0.0035549375804616
  80    -0.0064549560184559
  81    0.0017696634174434
  82    -0.0013189745291415
  83    0.0015375738720943
  84    0.0031980621868211
  85    -0.002069631469074
  86    0.0025944457786574
  87    0.0054011497009083
  88    -0.0068636886270402
  89    0.0076885814667779
  90    -6.6504454414905e-05
  91    0.00071901425261256
  92    -6.9012330479468e-05
  93    0.00026231691434549
  94    -0.00041106963918045
  95    0.00016322697873142
  96    -0.0010680349729661
  97    0.00061495890199556
  98    0.0075888825046692
  99    -0.0022036173295438
 100    4.1377249562573e-05
 101    -0.0014570939615081
 102    -0.0038825373768763
 103    -0.00011920027594848
 104    -0.0026203316834574
 105    -0.0072549283811848
 106    0.0028719232301964
 107    -0.0011008180588117
 108    0.0001018313221194
 109    -0.00034028633395035
 110    0.00014736601814754
 111    -0.00022845937674119
 112    -3.4183016804083e-05
 113    -8.2214538825197e-05
 114    0.00056743437922349
 115    -0.0016694255667701
 116    0.0024439944528044
 117    0.00039672881723897
 118    0.00038492492843666
 119    -0.0017672985187902
 120    0.00061840143295606
 121    0.00083627414675516
 122    -0.002917616175888
 123     0.001708753780723
 124    -0.00060411852935884
 125    -0.0057683187827103
 126    -0.0001725585257475
 127    -0.00031955854535088
 128    -0.00010802997782834
 129    -2.4925571128762e-05
 130    0.00021923477830495
 131    -0.0042080299550256
 132     0.027632678420277
 133    -0.035866298211689
 134    -0.032364841926831
 135    0.0082707400251946
 136     0.019158804166115
 137     0.040217063230887
 138     0.013761223689712
 139     0.032677812266869
 140     0.069167054679062
 141     0.023152930544617
 142     0.058806868598445
 143      0.12077157632091
 144    0.00019242946314077
 145    0.0010838189505763
 146    -0.0010107982714776
 147    0.00044211659183256
 148    0.0009472336188743
 149     0.003856211073189
 150    -0.025266036837048
 151     0.032390664365505
 152     0.030370433195851
 153     0.011996214679128
 154    -0.018172326952062
 155     0.037483315234755
 156     0.020889975051925
 157    -0.031011940437759
 158      0.06391823849578
 159     0.036784315922322
 160    -0.054803018535336
 161      0.11020754996088
 162    -0.00036898598756718
 163    0.0012244982236645
 164    -0.00027300674707604
 165    0.0010785997549285
 166    -0.0015561100663273
 167    -0.00082574194180826
 168    0.0055055108450684
 169    -0.0095743929389459
 170    0.00077301543397366
 171    -0.0091358504430601
 172    -0.0075413162790724
 173     0.010329031528955
 174    -0.015485682811457
 175    -0.013247599493048
 176     0.017343452744542
 177    -0.025284903703222
 178    -0.020063832840197
 179     0.029684973870411
 180    -0.00055248263546867
 181    -0.00065418073278241
 182    -0.0015615830178203
 183    -0.00035725051332875
 184    0.0010446017940144
 Sym= A
 Ene=               2
 Spin= Alpha
 Occup=    1.00000
   1    -0.00091910234268196
   2     0.002691963069935
   3    -0.012486829337493
   4     0.011032303842693
   5    0.0028345517157033
   6    -0.0034421976446083
   7    0.0029712722596233
   8    -0.00096060420428874
   9     0.011156581043788
  10    -0.0094695072779233
  11    0.0030659652513427
  12    -0.0096579173918966
  13     0.018915869920166
  14    0.0005974789316434
  15    -0.0010320481307992
  16    0.0023528087093231
  17    8.1318128961944e-07
  18      0.00471318386013
  19    -0.0026056313505637
  20    -0.00073759810466998
  21    0.00015988093969885
  22    -0.0014870781155803
  23    0.0018449778539003
  24    -0.0059204953622948
  25    0.00017266226802827
  26    9.9183243663348e-05
  27    -8.6916860745403e-05
  28    -0.00034191649596326
  29    0.0004269411118774
  30    -0.00028726641314446
  31    0.00083397344473655
  32    -0.010257856628929
  33    -0.021039058148822
  34     -0.02990411272742
  35     0.050304115005138
  36     0.095763352682702
  37    0.0069025444846192
  38     0.056245239834152
  39     0.093864731372706
  40    0.0030520101090242
  41    -0.00054555110405729
  42    0.00086886447322981
  43    0.00094514409264252
  44    0.0010347162277703
  45    0.0019884044932132
  46    0.0003203913532931
  47    -0.0010331964127501
  48    0.0039268501387635
  49    0.0093228955042515
  50    -0.0079010162551894
  51    -0.0067505119363943
  52    -0.0051373340429419
  53    0.0062848138452186
  54      0.02099837882801
  55     0.016176042802304
  56    -0.019558383815255
  57    -0.016034392557225
  58    -0.012395159911606
  59     0.021755643571121
  60     0.036706495168068
  61     -0.28683297546311
  62     -0.30786416608656
  63      0.15460700720424
  64     -0.74796920535473
  65    0.0092932792725216
  66    -0.078516966311316
  67    -0.082559982358591
  68     0.038556635097189
  69     -0.19402543096513
  70    -0.00061761336498874
  71    -1.7495614626891e-05
  72    -0.00084979793344992
  73    0.0014596573406491
  74    -0.001388128054893
  75    -0.00053753540169669
  76    0.0023550513297396
  77    -3.1928292872463e-05
  78    0.00020076454150072
  79    -0.0003541760725461
  80    0.00072973428268963
  81    -0.00047993254262945
  82    -0.0013331022405505
  83    -0.0002380173017473
  84    -0.00083711180066797
  85    -0.0022070632894159
  86    -0.00034650217402046
  87    -0.00086231761047024
  88    -0.0040757403349889
  89    -0.0020752623287275
  90    -1.7061093269725e-05
  91    -3.7832581204581e-05
  92    -0.00013162738442456
  93    -8.8528517416313e-05
  94    -0.00019430423029488
  95    1.4387809933424e-05
  96    -9.6949344416601e-05
  97    -0.00017065191800476
  98    0.0024066997788961
  99    -0.00085408168250439
 100    -0.00093799822642678
 101    -0.00031307051921941
 102    -0.001407765717679
 103    -0.0015850221095501
 104    -0.00074093093847362
 105    -0.0033085353702388
 106    -0.0024149623285131
 107    0.0016242942833512
 108    8.0451174939664e-06
 109    -0.00020016286609196
 110    6.9538199151604e-05
 111    9.6003596686467e-05
 112    -0.00029205684669814
 113    -0.00053380838366841
 114    0.0035502069822518
 115    -0.0054091388756212
 116     -0.00691700493059
 117    0.0044239381508819
 118    0.0020921425860562
 119    -6.0718497995467e-06
 120    0.0079280409098897
 121    0.0036049309956767
 122    0.00017896239755638
 123     0.012136620144152
 124    0.0085311861457045
 125    -0.0018171545268085
 126    -0.00045062046574294
 127    0.00010585119343846
 128    0.00025117172191228
 129    0.00072347348327419
 130    0.00086378603858035
 131    0.00078740490960888
 132    -0.0052075183403372
 133    0.0077790650680566
 134    0.0016675531568194
 135     0.021218414745088
 136     0.005613763887227
 137    -0.0096465777148845
 138     0.035894856169148
 139    0.0093918758495724
 140    -0.016901678961403
 141     0.060302027483305
 142     0.016644314618789
 143    -0.025590985708868
 144    -0.00092759935212195
 145    0.0029103326581969
 146    0.00052735230652553
 147    -0.00083711606255921
 148    0.00082738519569054
 149    -0.0023871512971032
 150     0.015676401259682
 151    -0.021384609202953
 152    -0.015042873171222
 153    -0.010699096638663
 154    0.0017708422892809
 155    -0.025584554349441
 156    -0.018450844233526
 157    0.0034499405417202
 158     -0.04330042081736
 159    -0.030880401739366
 160    0.0060228521203077
 161    -0.075923654082996
 162    0.00046733732381293
 163    -0.00074862485094502
 164    0.00075520787593652
 165    -0.00024248601740697
 166    0.00073524026982825
 167    0.0040041873246871
 168    -0.026174155105654
 169     0.033227728916602
 170     0.031648729448391
 171    0.00087023201760825
 172     0.045576268737489
 173    0.00090647680715382
 174    0.0019162948157664
 175      0.07742097115468
 176    0.0013616910290639
 177    0.0042025323566957
 178      0.13477879867441
 179    0.0046871262081049
 180    0.00033445875157735
 181    0.0010756511657433
 182     0.002345256369761
 183    6.3051830260001e-05
 184     0.001478623196872
 Sym= A
 Ene=               3
 Spin= Alpha
 Occup=    1.00000
   1    0.00084330881270593
   2    -0.0024760740510652
   3      0.01142303777392
   4    -0.011415853557858
   5    -0.0034648171740737
   6    0.0032027678285587
   7    0.0022460699707147
   8    0.0003531560159759
   9    -0.010327689840272
  10    -0.0071568336229699
  11    -0.0011169541712786
  12    0.0087160293123552
  13     0.014471725178186
  14    -0.0041853839184272
  15    0.0025487006355883
  16    -0.00099152487754019
  17    -0.00043540871494275
  18    -0.0030783888828214
  19    -0.0019055194480588
  20    0.0013076616162244
  21    0.00089138320132337
  22    -0.0011706244678023
  23    -0.00081931450134462
  24    -0.0048590570645182
  25    -0.00010138509633191
  26    -0.00022050767830591
  27    -0.00015408965798164
  28    9.7078869416187e-05
  29    0.00035231922176336
  30    0.00031124208213212
  31    0.00063733216200312
  32    0.0071502555340555
  33     0.015294810394542
  34     0.018815773501182
  35    -0.033591426368974
  36     0.074490486191992
  37    -0.028005024396659
  38    -0.037891588606748
  39     0.072621824544784
  40    -0.025466412419044
  41    0.00029780822428203
  42    -0.0010472475766317
  43    0.0012559362139003
  44    -0.00051442342017035
  45    0.0017268285563636
  46    0.00097544154766199
  47    -0.0028523105012489
  48     0.013188586687308
  49    -0.032258437769159
  50     0.016178818317924
  51    0.0052347389269824
  52    -0.0018944749448941
  53    -0.0061231657611881
  54    -0.016292701133177
  55    0.0061779465367757
  56     0.019007221987447
  57      0.01456520215297
  58    -0.00021176921100387
  59    -0.020016846624428
  60      0.23790872470069
  61      0.44309344096573
  62      0.58247537924107
  63       0.2301518914571
  64     -0.34804684045237
  65     0.062617296613962
  66      0.11932954255077
  67      0.15651895447044
  68     0.062210999410932
  69    -0.088992144976151
  70     0.001199725209197
  71    0.00075942490903116
  72    0.00055165077741583
  73    -0.00056239187358255
  74    -0.0019152362738508
  75    2.0485992493777e-05
  76    0.0014195562949186
  77    0.00030601350299246
  78    -0.0020233171964545
  79    0.0026199696582151
  80    0.0059606698845251
  81    -0.0018642831612877
  82    7.6160658095849e-05
  83    -0.0017809540962358
  84    -0.0034251530620426
  85    0.00015558168718629
  86    -0.0029266985496719
  87    -0.0047267644942829
  88    0.0010823353856715
  89    -0.0079392370144868
  90    3.032977732727e-06
  91    -0.00055560350614523
  92    -4.4224752474777e-05
  93    -0.00027174570705985
  94    0.00017491914913262
  95    0.00020101006662285
  96    -0.0013301895237547
  97    0.0020624701081322
  98    0.0021237270737581
  99    -0.0017466342995044
 100    -0.00026161813593564
 101    0.00084508719313053
 102    -0.0031571569436019
 103    -0.00027457202608235
 104    0.0013878024867233
 105    -0.004756063747451
 106    -0.0017748604859455
 107    0.0030836217170027
 108    0.00028264560598443
 109    0.00019238394171714
 110    -2.9951091184441e-05
 111    -0.00031016550115394
 112    8.9487090639269e-05
 113    -0.00017782772184916
 114    0.0011993844700348
 115    -0.0019667505030425
 116    -0.0027483807738204
 117    0.0023881165578285
 118    0.00033593641541926
 119    0.0006734060402431
 120    0.0042775520318608
 121    0.00050740632765331
 122     0.001229255825399
 123    0.0061454366119703
 124    0.0031759965206144
 125    0.00092078492050001
 126    -4.5519516685862e-05
 127    0.00017105077747764
 128    0.00014559353813949
 129    0.00047130691800416
 130    2.6074770126647e-05
 131    -0.0025350789016741
 132     0.016595927612873
 133    -0.020118665794051
 134    -0.019410475231812
 135    -0.012420506268306
 136    0.0097218455475095
 137      0.02366825533219
 138    -0.021215297756584
 139     0.016797540621917
 140     0.040609767463044
 141    -0.035094074901627
 142     0.028909188279705
 143     0.070193853885126
 144    -6.7282786181321e-05
 145    -0.00098872495619183
 146    -0.00018838808789814
 147    0.0010535192436611
 148    -0.0012817480989874
 149    -0.0012330790248211
 150    0.0080742242850364
 151    -0.0094756249616354
 152    -0.012725166068048
 153    0.0032767980331551
 154     0.023517391292526
 155    -0.0060001220387473
 156    0.0052950004188314
 157     0.040093872206984
 158    -0.010435524740135
 159    0.0068692342668669
 160     0.066764106142096
 161    -0.018346810291536
 162    -0.00041082232118727
 163    -0.0013819511333975
 164    -0.00088846922233046
 165    -0.0019969578505919
 166    -0.0010435494081218
 167    0.0013408325016355
 168    -0.0087503369231623
 169      0.01164151236778
 170     0.010605585464582
 171    -0.0013791905243157
 172    0.0090154550668539
 173     0.029040855162427
 174    -0.0022219087380076
 175     0.015115949733415
 176      0.04864684509404
 177    -0.0037262163293945
 178     0.028726650021479
 179     0.083633545776709
 180    -0.0014072169764326
 181    -0.00058961028883029
 182    -0.0014381473430895
 183    -0.0010875016929589
 184    0.0014292214669516