[Molden Format]
made by pyscf v[2.1.1]
[Atoms] (AU)
Fe   1   26     3.17068844873907     0.00098706064664     0.12237737881307
O   2   8     0.00000000000000     0.00000000000000    -0.89004350580623
Fe   3   26    -3.17068844873907    -0.00098706064664     0.12237737881307
Cl   4   17     3.53383895113107    -2.07485195383062     3.76228752659000
Cl   5   17     5.54152580550813    -1.85590924879884    -2.78672786652360
Cl   6   17     4.48169216485503     3.92976278472880    -0.95330240907949
Cl   7   17    -3.53383895113107     2.07485195383062     3.76228752659000
Cl   8   17    -5.54152580550813     1.85590924879884    -2.78672786652360
Cl   9   17    -4.48169216485503    -3.92976278472880    -0.95330240907949
[GTO]
1 0
 s    6 1.00
          60923.640643  0.0017552243692958
          9147.8893982   0.013449023284001
          2081.3505927   0.066678874640978
          587.55977067    0.23176348548844
           191.0904399    0.46945550248188
          65.732730112     0.3596824938678
 s    3 1.00
          127.25891928   -0.10723431835929
           14.83091301    0.62971616328466
          6.0653307408    0.44472317896179
 s    3 1.00
           10.44994371   -0.21694289195548
          1.7245228003    0.69457867408393
         0.71772177325    0.43298308896347
 s    1 1.00
        0.091449828308                   1
 s    1 1.00
        0.033706691021                   1
 p    5 1.00
          773.43750995  0.0091440529992506
          182.15149714   0.067887577136571
          57.547272758    0.26167978878504
          20.614988935    0.51088040113251
           7.634855789    0.33235475570224
 p    3 1.00
           3.871932799    0.33193859098144
          1.4924724132     0.5553666555499
         0.56061284958    0.23106034201617
 p    1 1.00
              0.134915                   1
 d    4 1.00
          38.968133419   0.033335938558743
          10.800067078    0.17766212505983
          3.6136457999      0.441281781625
          1.2129967888    0.57089200490673
 d    1 1.00
          0.3652439317                   1
 f    1 1.00
                 1.598                   1

2 0
 s    5 1.00
          2266.1767785  -0.0053893503921743
          340.87010191   -0.04023472138896
          77.363135167   -0.18008184205526
           21.47964494   -0.46828857657651
          6.6589433124   -0.44692617160187
 s    1 1.00
         0.80975975668                   1
 s    1 1.00
         0.25530772234                   1
 p    3 1.00
          17.721504317   0.062630248763161
           3.863550544    0.33331138482352
          1.0480920883    0.74148638308122
 p    1 1.00
         0.27641544411                   1
 d    1 1.00
                   1.2                   1

3 0
 s    6 1.00
          60923.640643  0.0017552243692958
          9147.8893982   0.013449023284001
          2081.3505927   0.066678874640978
          587.55977067    0.23176348548844
           191.0904399    0.46945550248188
          65.732730112     0.3596824938678
 s    3 1.00
          127.25891928   -0.10723431835929
           14.83091301    0.62971616328466
          6.0653307408    0.44472317896179
 s    3 1.00
           10.44994371   -0.21694289195548
          1.7245228003    0.69457867408393
         0.71772177325    0.43298308896347
 s    1 1.00
        0.091449828308                   1
 s    1 1.00
        0.033706691021                   1
 p    5 1.00
          773.43750995  0.0091440529992506
          182.15149714   0.067887577136571
          57.547272758    0.26167978878504
          20.614988935    0.51088040113251
           7.634855789    0.33235475570224
 p    3 1.00
           3.871932799    0.33193859098144
          1.4924724132     0.5553666555499
         0.56061284958    0.23106034201617
 p    1 1.00
              0.134915                   1
 d    4 1.00
          38.968133419   0.033335938558743
          10.800067078    0.17766212505983
          3.6136457999      0.441281781625
          1.2129967888    0.57089200490673
 d    1 1.00
          0.3652439317                   1
 f    1 1.00
                 1.598                   1

4 0
 s    5 1.00
          10449.827566  0.0054265953789407
          1571.7365221   0.040626378128836
          357.12065523    0.18359747852877
          100.25185935    0.47438948768198
          30.812727554    0.43735181104122
 s    3 1.00
          51.923789434  -0.092754154848099
          5.7045760975    0.56380825544207
          2.3508376809    0.50367044629712
 s    1 1.00
         0.44605124672                   1
 s    1 1.00
          0.1684885619                   1
 p    5 1.00
          307.66790569  -0.0088797025588865
          72.102015515  -0.064284071721237
          22.532680262   -0.24288739736006
          7.8991765444   -0.48340836369878
          2.8767268321   -0.38952563875509
 p    1 1.00
         0.77459363955                   1
 p    1 1.00
         0.21037699698                   1
 d    1 1.00
                  0.65                   1

5 0
 s    5 1.00
          10449.827566  0.0054265953789407
          1571.7365221   0.040626378128836
          357.12065523    0.18359747852877
          100.25185935    0.47438948768198
          30.812727554    0.43735181104122
 s    3 1.00
          51.923789434  -0.092754154848099
          5.7045760975    0.56380825544207
          2.3508376809    0.50367044629712
 s    1 1.00
         0.44605124672                   1
 s    1 1.00
          0.1684885619                   1
 p    5 1.00
          307.66790569  -0.0088797025588865
          72.102015515  -0.064284071721237
          22.532680262   -0.24288739736006
          7.8991765444   -0.48340836369878
          2.8767268321   -0.38952563875509
 p    1 1.00
         0.77459363955                   1
 p    1 1.00
         0.21037699698                   1
 d    1 1.00
                  0.65                   1

6 0
 s    5 1.00
          10449.827566  0.0054265953789407
          1571.7365221   0.040626378128836
          357.12065523    0.18359747852877
          100.25185935    0.47438948768198
          30.812727554    0.43735181104122
 s    3 1.00
          51.923789434  -0.092754154848099
          5.7045760975    0.56380825544207
          2.3508376809    0.50367044629712
 s    1 1.00
         0.44605124672                   1
 s    1 1.00
          0.1684885619                   1
 p    5 1.00
          307.66790569  -0.0088797025588865
          72.102015515  -0.064284071721237
          22.532680262   -0.24288739736006
          7.8991765444   -0.48340836369878
          2.8767268321   -0.38952563875509
 p    1 1.00
         0.77459363955                   1
 p    1 1.00
         0.21037699698                   1
 d    1 1.00
                  0.65                   1

7 0
 s    5 1.00
          10449.827566  0.0054265953789407
          1571.7365221   0.040626378128836
          357.12065523    0.18359747852877
          100.25185935    0.47438948768198
          30.812727554    0.43735181104122
 s    3 1.00
          51.923789434  -0.092754154848099
          5.7045760975    0.56380825544207
          2.3508376809    0.50367044629712
 s    1 1.00
         0.44605124672                   1
 s    1 1.00
          0.1684885619                   1
 p    5 1.00
          307.66790569  -0.0088797025588865
          72.102015515  -0.064284071721237
          22.532680262   -0.24288739736006
          7.8991765444   -0.48340836369878
          2.8767268321   -0.38952563875509
 p    1 1.00
         0.77459363955                   1
 p    1 1.00
         0.21037699698                   1
 d    1 1.00
                  0.65                   1

8 0
 s    5 1.00
          10449.827566  0.0054265953789407
          1571.7365221   0.040626378128836
          357.12065523    0.18359747852877
          100.25185935    0.47438948768198
          30.812727554    0.43735181104122
 s    3 1.00
          51.923789434  -0.092754154848099
          5.7045760975    0.56380825544207
          2.3508376809    0.50367044629712
 s    1 1.00
         0.44605124672                   1
 s    1 1.00
          0.1684885619                   1
 p    5 1.00
          307.66790569  -0.0088797025588865
          72.102015515  -0.064284071721237
          22.532680262   -0.24288739736006
          7.8991765444   -0.48340836369878
          2.8767268321   -0.38952563875509
 p    1 1.00
         0.77459363955                   1
 p    1 1.00
         0.21037699698                   1
 d    1 1.00
                  0.65                   1

9 0
 s    5 1.00
          10449.827566  0.0054265953789407
          1571.7365221   0.040626378128836
          357.12065523    0.18359747852877
          100.25185935    0.47438948768198
          30.812727554    0.43735181104122
 s    3 1.00
          51.923789434  -0.092754154848099
          5.7045760975    0.56380825544207
          2.3508376809    0.50367044629712
 s    1 1.00
         0.44605124672                   1
 s    1 1.00
          0.1684885619                   1
 p    5 1.00
          307.66790569  -0.0088797025588865
          72.102015515  -0.064284071721237
          22.532680262   -0.24288739736006
          7.8991765444   -0.48340836369878
          2.8767268321   -0.38952563875509
 p    1 1.00
         0.77459363955                   1
 p    1 1.00
         0.21037699698                   1
 d    1 1.00
                  0.65                   1

[5d]
[7f]
[9g]

[MO]
 Sym= A
 Ene=               0
 Spin= Alpha
 Occup=    1.00000
   1    0.0015225704971209
   2    -0.0045393782945296
   3      0.02021047073156
   4    -0.035318359348952
   5     0.013381890378258
   6    0.0023093701988222
   7    0.0010247262755941
   8    -0.0058262562777251
   9    -0.0072164382206815
  10    -0.0033063901716494
  11     0.018140444008804
  12    0.0066753227413889
  13     0.002481563724724
  14    -0.024899595838867
  15      0.20554701195466
  16     -0.39206142510231
  17     -0.58831415196424
  18      0.43941601654649
  19      0.18299776017496
  20     0.054568417833308
  21     -0.10579337996887
  22      -0.1586120576371
  23      0.11955912229593
  24     0.049787435764244
  25    0.00088248059849056
  26    -0.0008682759217761
  27    -0.001087282000287
  28    6.0639654130171e-05
  29    -0.00058882034263631
  30    0.00092280329076901
  31    0.00019483098048816
  32    2.4301440248061e-05
  33    0.0010727368897821
  34    -0.0023497932829755
  35    -0.00090010747984253
  36    -0.0024215952261801
  37    -0.040285599754311
  38    -0.001309959881646
  39    -0.002239553110186
  40    -0.039618155188804
  41    -0.0002195135299823
  42    0.00088300436769456
  43    -0.00045807652288262
  44    0.0001286612440196
  45     0.000191411529685
  46    0.00028509297451171
  47    -0.00086388252205823
  48    0.0037368416752213
  49    -0.0042502798200749
  50    0.0014240413529294
  51    -0.001462299765434
  52    1.2325982514645e-05
  53    -0.00084533928060463
  54    0.0046286197960542
  55    -4.0228131617063e-05
  56    0.0026944420580976
  57    -0.0036800342666646
  58    -3.0067381244185e-05
  59    -0.0067270706711817
  60    0.00088323510139056
  61    -0.00066851540382815
  62    5.4633512271921e-05
  63    -0.0011923463924691
  64    9.2302930129475e-05
  65    0.0010410539533208
  66    -0.0018663351219738
  67    0.00018820011936138
  68    -0.00037479561109205
  69    -0.0002545609786897
  70    7.4960874082026e-05
  71    0.00031267650741399
  72    3.1286637257501e-05
  73    -0.00013844410668837
  74    1.4011058872358e-05
  75    -0.0001880418345519
  76    -2.9432973960581e-05
  77    -0.0019177713675841
  78     0.012577560089703
  79    -0.015901861585019
  80     -0.01085767214558
  81     0.014794268690815
  82    -0.0090534738773223
  83        0.016361935684
  84     0.025134619702442
  85    -0.015636832983506
  86     0.028316649754663
  87     0.041134897221679
  88    -0.025657811374433
  89     0.046819479291927
  90    -0.00029780269638982
  91    0.0015143611302948
  92    -0.00026547139918929
  93    0.0010535418235213
  94    -0.0010203121886115
  95    0.00055280434025135
  96    -0.0036480527312136
  97    0.0064029815839817
  98    -0.0017245250217754
  99    -0.015967520473077
 100    -0.023334991632816
 101     0.010245320126297
 102    -0.027045141692904
 103    -0.039300624807741
 104     0.017241542128828
 105    -0.043767256605807
 106    -0.066908735636707
 107     0.028613698242799
 108    -0.00043343817505102
 109    0.0013448332182239
 110    0.0017634425233585
 111    -0.0021536158641774
 112    -0.0013380798027094
 113    0.00040218199620442
 114    -0.0026308282281275
 115    0.0044238454452243
 116    0.00024761290958996
 117    -0.011865128608487
 118    0.0056742939531146
 119     0.025415647753081
 120    -0.019896636582322
 121    0.0095859137941392
 122     0.042634417455454
 123    -0.033607852719767
 124     0.016461090401589
 125     0.072336558500705
 126    -0.0011811766515997
 127    0.0013362715163767
 128    0.0017258052640277
 129    -0.0017634442823105
 130    -0.00050871731222859
 131    0.00020367302671109
 132    -0.0013791282172403
 133    0.0026950992311659
 134    0.00091304104907144
 135    0.0017138404214796
 136    -0.00054003835039405
 137    -0.00076662280846348
 138     0.003138283465283
 139    -0.00095665763392687
 140    -0.0013518147260816
 141    0.0039848283924601
 142    -0.002103470277895
 143    -0.0028975302903646
 144    0.00011315793138689
 145    0.00026630585166537
 146    -2.6656283581453e-05
 147    -0.00018557023628928
 148    0.00018483447598472
 149    -6.5350000751913e-05
 150    0.00042953577246577
 151    -0.00037062031443371
 152    -0.0023295519134275
 153    -0.00076581090843628
 154    7.9189487715898e-05
 155    0.00054693720432722
 156    -0.0013410885694455
 157    0.00010255771063228
 158    0.00095025399535907
 159    -0.0025554518338257
 160    0.00094923008118415
 161    0.00074473778625138
 162    -3.4547741967204e-05
 163    -7.5292486496026e-05
 164    2.6969996412448e-05
 165    9.6626439184591e-05
 166    -2.4968575181431e-05
 167    3.0391262346675e-06
 168    -3.1720519827497e-05
 169    0.00039898483269198
 170    -0.0012984110973471
 171    -3.7876571025841e-05
 172    6.0325632629492e-06
 173    0.00067277614749356
 174    -3.1654530360708e-05
 175    3.0621602013719e-05
 176    0.0011438955499561
 177    -0.00026859585727172
 178    -0.00043966752280551
 179    0.0019996442221105
 180    1.3737352003813e-05
 181    -0.00013269841083977
 182    -4.65919477328e-05
 183    7.5341415205679e-06
 184    -1.8846789270004e-05
 Sym= A
 Ene=               1
 Spin= Alpha
 Occup=    1.00000
   1    0.00073739800427723
   2    -0.0021999540042074
   3      0.00977567223268
   4    -0.017859798516214
   5    0.0051824251437855
   6    0.0010660539142732
   7    -0.0080748904631472
   8    -0.003206708557689
   9    -0.0032940137080671
  10     0.024937382282425
  11    0.0097990529386566
  12    0.0020696324401246
  13    -0.032477021143838
  14    -0.015836433875093
  15     -0.61530351727978
  16    -0.071626939568296
  17     -0.43799389133773
  18     -0.20242732015638
  19     -0.38885068121031
  20     -0.16517677156829
  21    -0.018727933173322
  22     -0.11748120875544
  23    -0.053590869542433
  24     -0.10435486728352
  25    -0.00089269728112465
  26    -0.0012125013200063
  27    -0.00060598292107947
  28    -0.00064439195254731
  29    -0.0013365624537341
  30    -0.00011660874621522
  31    -0.0011588749444229
  32    0.0012890981744493
  33    0.0037854482988067
  34    0.00044832434143311
  35    0.0042942773332056
  36    -0.058381114517817
  37    -0.036657335358041
  38    0.0046690793352885
  39    -0.055956435570353
  40    -0.036013457660887
  41    -0.00067930478018409
  42    0.0010764388285542
  43    -0.00089719580033504
  44    -0.00044437564373419
  45     0.001327403388861
  46    0.00037616540028597
  47    -0.0011188249855691
  48    0.0050252186805166
  49    -0.0064413910018825
  50    0.0026582875469474
  51    -0.0016416566026073
  52    -0.0016873454418348
  53    -0.00052755201968616
  54    0.0052213145680884
  55    0.0053680082358659
  56    0.0016870217128455
  57    -0.0039097345305966
  58    -0.010711917661874
  59    -0.005928182630926
  60    0.0010920487216302
  61    1.7096861350673e-05
  62    0.00029445257660259
  63    -0.0012727421731167
  64    -0.0014152893910707
  65    0.0010342158100487
  66    -0.0017201299133304
  67    0.00094840690971858
  68    -0.00044562870350563
  69    -0.0037737595503015
  70    3.6271817113777e-05
  71    0.00029103993870009
  72    0.0001129666667466
  73    -0.00012188211745371
  74    0.00026854740306319
  75    -0.00021494886952785
  76    -0.00051528726150791
  77    0.00020522593535951
  78    -0.0013396574684188
  79    0.0019425036041291
  80    0.0016372429514857
  81    -0.0048153648869005
  82     0.026841138779233
  83     0.012829584845072
  84    -0.0081418234739795
  85      0.04532858333111
  86     0.021733597277201
  87    -0.013677190809903
  88     0.076946343951647
  89     0.036230253034041
  90    0.0029475866906063
  91    -0.00050680178852426
  92     0.001490224041147
  93    0.0014501875892955
  94    0.00038647642817249
  95    0.0011608730473828
  96    -0.0076680843752658
  97     0.011654576303927
  98    0.0016323046894802
  99    -0.019335504831323
 100     0.016620224894167
 101    -0.0097879606228778
 102    -0.032930328650004
 103     0.028111810283007
 104    -0.016282279937935
 105    -0.053059040281646
 106     0.047642537808311
 107    -0.028196959544944
 108    0.0026940962085631
 109    -0.00035955985278094
 110    -7.3631113104583e-05
 111    -0.00050536847499145
 112    0.0014612429876538
 113    -0.0018370051616426
 114     0.012025925489871
 115    -0.015837978862102
 116    -0.0084438516420139
 117     0.016996219422242
 118     0.016048892216055
 119    0.0030500068918473
 120      0.02874985283703
 121     0.027399123796717
 122    0.0051206106989743
 123     0.047465525861528
 124     0.045887312737191
 125    0.0089064708656225
 126    -0.00080545282693964
 127    -0.00020962262542579
 128    0.0012371846366159
 129     0.001037037937007
 130    0.00084977229169394
 131    0.00023728547384067
 132    -0.0015705200762178
 133     0.002163982672504
 134     0.004004186459331
 135    0.0021644415867819
 136    1.6642583784416e-05
 137    -0.0016254088154272
 138    0.0037704688857438
 139    8.4130336002323e-05
 140    -0.0027832311049624
 141    0.0058715008398266
 142    -0.001032182817415
 143    -0.0064662638801302
 144    4.1129163959277e-05
 145    0.00042975130011687
 146    4.6311453007114e-05
 147    -0.00024645726650412
 148    5.8081748442009e-05
 149    5.979311727523e-05
 150    -0.00040537872300698
 151    0.00089311553302963
 152    -0.00036676209776323
 153    0.00052791054824115
 154    0.00037937810845396
 155    0.00064049104967993
 156    0.00094704143074648
 157    0.00055518255595013
 158    0.0010285557192302
 159    0.0014399530199756
 160     0.001872738058855
 161    0.0022355074370532
 162    0.00012276601084942
 163    -9.0850023539761e-05
 164    1.3998186707859e-05
 165    -6.800808857245e-05
 166    -3.3082258031123e-05
 167    -0.00022008012800409
 168    0.0014610502577965
 169    -0.0020772841953642
 170    -0.0037495695452665
 171    -0.002435054067036
 172    -0.00069937356749339
 173    0.00070051537769052
 174    -0.0043725073050857
 175    -0.0011785657528295
 176    0.0012610823571024
 177    -0.0062411049690088
 178    -0.0037161901560848
 179    0.0012436775820499
 180    -0.00010455522338732
 181    -0.00018291119626059
 182    -0.000151452039564
 183    0.00041404990670041
 184    0.00017322721901532
 Sym= A
 Ene=               2
 Spin= Alpha
 Occup=    1.00000
   1    -0.0022159205950898
   2    0.0068491236952492
   3    -0.028372487723716
   4    0.0071847895363186
   5     0.010894005117769
   6    -0.026314109108821
   7    -0.0024142366760031
   8    -0.0084783871173715
   9     0.081913742615782
  10    0.0075443678197727
  11     0.026404822019115
  12    -0.069082556685063
  13     -0.01035262125325
  14    -0.011516322683801
  15      0.33402989282621
  16     -0.29174717054667
  17     -0.18858036354597
  18     -0.70766456435995
  19       0.1047685721375
  20     0.088465641080272
  21    -0.081810528462699
  22     -0.04862062876702
  23     -0.18832005490348
  24     0.025945220652542
  25     0.001698333037573
  26    0.0014995424592049
  27    0.00033612217207838
  28    -0.0028677274898659
  29    -4.9343210810497e-05
  30    -0.0030636961540178
  31    0.00043160374996399
  32     0.028757437854641
  33     0.056820393801381
  34     0.088234651077742
  35      0.13763334009809
  36     0.011896119408413
  37     0.064628800939729
  38      0.15622653702664
  39     0.011674672491505
  40     0.073236557908835
  41    0.0025027618323683
  42    0.00030436140394104
  43    0.00012787891545654
  44    -0.0024961993692038
  45    -0.00021499392200921
  46    0.0019927195780196
  47    -0.0057697427047608
  48     0.027377053515236
  49    -0.022902306015224
  50    -0.017340434549125
  51    -0.0063606058690014
  52    0.00022463574485549
  53    0.0047057082376332
  54     0.020829851156124
  55    -0.00071687283782463
  56    -0.014988736819548
  57    -0.018171588827501
  58    0.0015641938430358
  59     0.012918639801837
  60    0.0039095720958236
  61    0.0073560614565474
  62    3.8691146920638e-05
  63    -0.0093976752199618
  64    0.00022754751816385
  65    0.0002396197724311
  66    0.0044768982877221
  67    -0.00062616514629724
  68    -0.0027315203358487
  69    0.0005099147400234
  70    -0.00065666021837062
  71    -0.00044465614834801
  72    6.1742987449143e-05
  73    0.0010945781511381
  74    -1.9570464470199e-05
  75    -0.00037608666212048
  76    0.00014695419612062
  77    -0.0029447208169628
  78      0.01931662998324
  79    -0.024640301764012
  80    -0.025105974344808
  81     0.023143088059018
  82    -0.0076172809684542
  83     0.027687328284307
  84     0.039379809229749
  85    -0.013049400674071
  86     0.047612652321407
  87     0.067469002254974
  88    -0.024676026035577
  89     0.082838350055507
  90    0.00054326615057992
  91    0.0027998096945128
  92    0.0012755799102355
  93    0.00041112495436491
  94    -0.0015337324071692
  95    -0.00021704241391641
  96    0.0014491951137248
  97    -0.0029653286289709
  98    0.0040620026219373
  99     0.021019544706774
 100    0.0026834580535728
 101     0.012307757615359
 102     0.035630787176679
 103    0.0041948981847413
 104     0.020429357799096
 105     0.059085957922604
 106     0.010978601280597
 107     0.038909698478468
 108    -0.0018382279579165
 109    -0.0013355108454237
 110    -0.0010169518847747
 111    0.0015288220411944
 112    -0.0011347239471331
 113    -0.0031574468998477
 114     0.020686440425913
 115    -0.027865305970016
 116    -0.019557982028491
 117     0.025290869023349
 118     0.027403018664694
 119    0.0017778589935937
 120     0.042791013080364
 121     0.047107895338562
 122    0.0030672631271298
 123     0.073932014410871
 124     0.077731590502568
 125    0.0040298839673914
 126    -0.00044551641079038
 127    -7.6913484175951e-05
 128    0.0021411830662641
 129     0.001128854245196
 130    0.0018414653349782
 131    2.7438034272813e-05
 132    -8.5528159902362e-05
 133    -0.0020007614904613
 134    0.0061003865089834
 135    -0.0021350522720378
 136    -0.00052941509788261
 137    -0.0005011364843451
 138    -0.0037208876822817
 139    -0.00084325346191102
 140    -0.0006065550800241
 141    -0.0044751021559965
 142    -0.0012899945063803
 143    -0.0022689153257033
 144    -0.00026490146440536
 145    0.00014760405925114
 146    -4.4476684045849e-05
 147    0.00015712635844173
 148    0.00010889062230367
 149    0.00054625044188157
 150    -0.0035985538375257
 151    0.0050063636023432
 152    0.0080672192178199
 153    0.0042852613254054
 154    -0.0011473708838345
 155    0.00035929297535209
 156    0.0078333328900406
 157    -0.002134757712532
 158    0.00075491708768852
 159     0.011598330547767
 160    -0.003360627432714
 161     0.001159491858138
 162    0.00062168563687007
 163    -0.00040191893507801
 164    5.7821700329293e-05
 165    -0.0010154716313803
 166    0.00066665419469397
 167    0.00046143055100666
 168    -0.0030029768835603
 169    0.0032345620908185
 170     0.009344458958002
 171    0.0023996359054794
 172    0.0024624591612486
 173    -0.00082138453543236
 174    0.0042536213647093
 175    0.0042946333626475
 176    -0.0015058107251718
 177    0.0074588841965777
 178    0.0082834874182077
 179    -0.0018380407970249
 180    0.00052543596254133
 181    0.00024550200910668
 182    0.00025505411046879
 183    -0.00026180421056935
 184    -0.0011679972939101
 Sym= A
 Ene=               3
 Spin= Alpha
 Occup=    1.00000
   1    -0.0002863026021733
   2    0.00084183527368205
   3    -0.0038590712920404
   4    0.0052592192335154
   5    0.00076795355704109
   6    0.00059488540458968
   7    -0.0053245094278813
   8    0.0021343320196697
   9    -0.0018844728781711
  10     0.016830765628247
  11    -0.0068359970493061
  12    0.0022727309048751
  13    -0.0096868778323504
  14    -0.0013928316897722
  15      -0.4785085498955
  16     -0.25986203500207
  17      0.16127692908098
  18    -0.064267374079159
  19       0.6620095265877
  20     -0.12547847104067
  21    -0.067296084080769
  22     0.041652965938737
  23    -0.016688505285681
  24      0.17121506853194
  25    -0.00032173741314075
  26    -0.0013562510118379
  27    -0.00040825569416535
  28    -0.001138221268027
  29    0.0017441599845547
  30    0.00041041251679492
  31    0.0023768536302061
  32    0.0020985697665373
  33    0.0058293445438292
  34    0.0024111580153834
  35     0.010051663956113
  36      0.10099005545956
  37    -0.056431439813671
  38     0.011141419457327
  39     0.099030315022527
  40     -0.05530673042127
  41    -0.00066487791396684
  42    0.0015441895781178
  43    0.0012658407200081
  44    -0.00070972253611978
  45    -0.0022729029272522
  46    0.00059322954843728
  47    -0.0017688497322482
  48    0.0079110823831381
  49    -0.0087080302004775
  50    0.0050621706925118
  51    -0.0027955441149977
  52    0.0031926763260524
  53    -0.0010806102656701
  54    0.0089315990914975
  55    -0.010166530683376
  56    0.0034555723009291
  57    -0.008411153667875
  58      0.01988350590436
  59    -0.010659532927473
  60    0.0014323368425943
  61    -4.5106728951292e-05
  62    -0.00048854834559881
  63    -0.0026423328406607
  64    0.0026053237738453
  65    0.0016729864378788
  66    -0.0026596684938229
  67    -0.0017556783076559
  68    -0.0015684216007828
  69    0.0063817925173811
  70    6.2921740187153e-05
  71    0.00047042225765681
  72    -0.00010993968242565
  73    -5.8953945476511e-05
  74    -0.00046845563808997
  75    -0.00033006624701724
  76    0.0008726736269556
  77    0.0028760003514451
  78    -0.018827439736942
  79     0.022921871966548
  80     0.025824569179984
  81     0.010684115989854
  82     0.023741678840091
  83    -0.022670804083613
  84     0.017853049518747
  85     0.040373921751445
  86    -0.038763057378228
  87      0.03007346282865
  88     0.071067551257119
  89    -0.070680558441515
  90     0.001168645903459
  91    0.0018702828613103
  92    8.6685710887675e-06
  93    0.00019126441799056
  94    -0.00019614468364712
  95    0.0010065654424862
  96    -0.006636085438395
  97    0.0095906907268059
  98    0.0042648410106081
  99    -0.0078377558023519
 100    0.0074720212101801
 101    0.0029294089041225
 102    -0.013442673509184
 103        0.013067015944
 104    0.0049860584035823
 105    -0.022174039228826
 106     0.020256786744438
 107    0.0092572878895545
 108    0.00073641800889415
 109    -0.00061140894854519
 110    0.00015952811095982
 111    0.0003793710400885
 112    0.0010424103366596
 113    -0.0033846357558353
 114     0.022066604916273
 115    -0.027020848268783
 116    -0.029437516590838
 117    -0.0039920356724495
 118     0.036541048567627
 119     -0.01893371639951
 120    -0.0063723161244631
 121     0.061740730788797
 122    -0.031623056467773
 123    -0.010002367642231
 124       0.1101079015514
 125    -0.055957300573198
 126    0.00056739468855252
 127    0.00023706828136976
 128    0.00042194045205499
 129    0.00067141790357025
 130    -0.0024022701878039
 131    7.4483015581444e-05
 132    -0.00051217747895924
 133    0.0012087449566607
 134    -0.00058414426212345
 135    0.00014227237919134
 136    -0.0014465619155928
 137    0.00012641144594811
 138    0.00021759439691507
 139    -0.0023221810823604
 140    9.7943300631558e-05
 141    0.00097074829358877
 142    -0.0055187328060397
 143    0.0011029057127093
 144    7.8528608853744e-05
 145    8.573333633031e-05
 146    -0.00013798194124122
 147    1.4614756063467e-05
 148    0.00024306146452213
 149    -0.00024258407587865
 150    0.0015977615321459
 151    -0.0016513086103657
 152    -0.0072915072612843
 153    -0.0030186910452137
 154    -0.00059410619006449
 155    0.00057115661357317
 156    -0.005305558868779
 157    -0.00099790998388175
 158    0.0011865581505926
 159    -0.0095316627108424
 160    -0.00060985441342015
 161    -0.0019251048874622
 162    -0.0002399755487205
 163    -0.0001792865860088
 164    9.9526116572438e-05
 165    0.00028790491535361
 166    0.0001069245403276
 167    0.00043548888557126
 168    -0.0029224118900347
 169     0.005062376763481
 170     0.003735088097583
 171    0.0039675488899639
 172     0.001519601396972
 173    0.00068147872007869
 174    0.0070750710722731
 175    0.0026585487203058
 176    0.00096073102889251
 177     0.010924610518727
 178    0.0061623107699515
 179    0.0039337282610825
 180    0.00036231275717671
 181    -4.0941697633221e-05
 182    0.00015298850086943
 183    -0.00065674629519786