[Molden Format]
made by pyscf v[2.1.1]
[Atoms] (AU)
Fe   1   26     3.17068844873907     0.00098706064664     0.12237737881307
O   2   8     0.00000000000000     0.00000000000000    -0.89004350580623
Fe   3   26    -3.17068844873907    -0.00098706064664     0.12237737881307
Cl   4   17     3.53383895113107    -2.07485195383062     3.76228752659000
Cl   5   17     5.54152580550813    -1.85590924879884    -2.78672786652360
Cl   6   17     4.48169216485503     3.92976278472880    -0.95330240907949
Cl   7   17    -3.53383895113107     2.07485195383062     3.76228752659000
Cl   8   17    -5.54152580550813     1.85590924879884    -2.78672786652360
Cl   9   17    -4.48169216485503    -3.92976278472880    -0.95330240907949
[GTO]
1 0
 s    6 1.00
          60923.640643  0.0017552243692958
          9147.8893982   0.013449023284001
          2081.3505927   0.066678874640978
          587.55977067    0.23176348548844
           191.0904399    0.46945550248188
          65.732730112     0.3596824938678
 s    3 1.00
          127.25891928   -0.10723431835929
           14.83091301    0.62971616328466
          6.0653307408    0.44472317896179
 s    3 1.00
           10.44994371   -0.21694289195548
          1.7245228003    0.69457867408393
         0.71772177325    0.43298308896347
 s    1 1.00
        0.091449828308                   1
 s    1 1.00
        0.033706691021                   1
 p    5 1.00
          773.43750995  0.0091440529992506
          182.15149714   0.067887577136571
          57.547272758    0.26167978878504
          20.614988935    0.51088040113251
           7.634855789    0.33235475570224
 p    3 1.00
           3.871932799    0.33193859098144
          1.4924724132     0.5553666555499
         0.56061284958    0.23106034201617
 p    1 1.00
              0.134915                   1
 d    4 1.00
          38.968133419   0.033335938558743
          10.800067078    0.17766212505983
          3.6136457999      0.441281781625
          1.2129967888    0.57089200490673
 d    1 1.00
          0.3652439317                   1
 f    1 1.00
                 1.598                   1

2 0
 s    5 1.00
          2266.1767785  -0.0053893503921743
          340.87010191   -0.04023472138896
          77.363135167   -0.18008184205526
           21.47964494   -0.46828857657651
          6.6589433124   -0.44692617160187
 s    1 1.00
         0.80975975668                   1
 s    1 1.00
         0.25530772234                   1
 p    3 1.00
          17.721504317   0.062630248763161
           3.863550544    0.33331138482352
          1.0480920883    0.74148638308122
 p    1 1.00
         0.27641544411                   1
 d    1 1.00
                   1.2                   1

3 0
 s    6 1.00
          60923.640643  0.0017552243692958
          9147.8893982   0.013449023284001
          2081.3505927   0.066678874640978
          587.55977067    0.23176348548844
           191.0904399    0.46945550248188
          65.732730112     0.3596824938678
 s    3 1.00
          127.25891928   -0.10723431835929
           14.83091301    0.62971616328466
          6.0653307408    0.44472317896179
 s    3 1.00
           10.44994371   -0.21694289195548
          1.7245228003    0.69457867408393
         0.71772177325    0.43298308896347
 s    1 1.00
        0.091449828308                   1
 s    1 1.00
        0.033706691021                   1
 p    5 1.00
          773.43750995  0.0091440529992506
          182.15149714   0.067887577136571
          57.547272758    0.26167978878504
          20.614988935    0.51088040113251
           7.634855789    0.33235475570224
 p    3 1.00
           3.871932799    0.33193859098144
          1.4924724132     0.5553666555499
         0.56061284958    0.23106034201617
 p    1 1.00
              0.134915                   1
 d    4 1.00
          38.968133419   0.033335938558743
          10.800067078    0.17766212505983
          3.6136457999      0.441281781625
          1.2129967888    0.57089200490673
 d    1 1.00
          0.3652439317                   1
 f    1 1.00
                 1.598                   1

4 0
 s    5 1.00
          10449.827566  0.0054265953789407
          1571.7365221   0.040626378128836
          357.12065523    0.18359747852877
          100.25185935    0.47438948768198
          30.812727554    0.43735181104122
 s    3 1.00
          51.923789434  -0.092754154848099
          5.7045760975    0.56380825544207
          2.3508376809    0.50367044629712
 s    1 1.00
         0.44605124672                   1
 s    1 1.00
          0.1684885619                   1
 p    5 1.00
          307.66790569  -0.0088797025588865
          72.102015515  -0.064284071721237
          22.532680262   -0.24288739736006
          7.8991765444   -0.48340836369878
          2.8767268321   -0.38952563875509
 p    1 1.00
         0.77459363955                   1
 p    1 1.00
         0.21037699698                   1
 d    1 1.00
                  0.65                   1

5 0
 s    5 1.00
          10449.827566  0.0054265953789407
          1571.7365221   0.040626378128836
          357.12065523    0.18359747852877
          100.25185935    0.47438948768198
          30.812727554    0.43735181104122
 s    3 1.00
          51.923789434  -0.092754154848099
          5.7045760975    0.56380825544207
          2.3508376809    0.50367044629712
 s    1 1.00
         0.44605124672                   1
 s    1 1.00
          0.1684885619                   1
 p    5 1.00
          307.66790569  -0.0088797025588865
          72.102015515  -0.064284071721237
          22.532680262   -0.24288739736006
          7.8991765444   -0.48340836369878
          2.8767268321   -0.38952563875509
 p    1 1.00
         0.77459363955                   1
 p    1 1.00
         0.21037699698                   1
 d    1 1.00
                  0.65                   1

6 0
 s    5 1.00
          10449.827566  0.0054265953789407
          1571.7365221   0.040626378128836
          357.12065523    0.18359747852877
          100.25185935    0.47438948768198
          30.812727554    0.43735181104122
 s    3 1.00
          51.923789434  -0.092754154848099
          5.7045760975    0.56380825544207
          2.3508376809    0.50367044629712
 s    1 1.00
         0.44605124672                   1
 s    1 1.00
          0.1684885619                   1
 p    5 1.00
          307.66790569  -0.0088797025588865
          72.102015515  -0.064284071721237
          22.532680262   -0.24288739736006
          7.8991765444   -0.48340836369878
          2.8767268321   -0.38952563875509
 p    1 1.00
         0.77459363955                   1
 p    1 1.00
         0.21037699698                   1
 d    1 1.00
                  0.65                   1

7 0
 s    5 1.00
          10449.827566  0.0054265953789407
          1571.7365221   0.040626378128836
          357.12065523    0.18359747852877
          100.25185935    0.47438948768198
          30.812727554    0.43735181104122
 s    3 1.00
          51.923789434  -0.092754154848099
          5.7045760975    0.56380825544207
          2.3508376809    0.50367044629712
 s    1 1.00
         0.44605124672                   1
 s    1 1.00
          0.1684885619                   1
 p    5 1.00
          307.66790569  -0.0088797025588865
          72.102015515  -0.064284071721237
          22.532680262   -0.24288739736006
          7.8991765444   -0.48340836369878
          2.8767268321   -0.38952563875509
 p    1 1.00
         0.77459363955                   1
 p    1 1.00
         0.21037699698                   1
 d    1 1.00
                  0.65                   1

8 0
 s    5 1.00
          10449.827566  0.0054265953789407
          1571.7365221   0.040626378128836
          357.12065523    0.18359747852877
          100.25185935    0.47438948768198
          30.812727554    0.43735181104122
 s    3 1.00
          51.923789434  -0.092754154848099
          5.7045760975    0.56380825544207
          2.3508376809    0.50367044629712
 s    1 1.00
         0.44605124672                   1
 s    1 1.00
          0.1684885619                   1
 p    5 1.00
          307.66790569  -0.0088797025588865
          72.102015515  -0.064284071721237
          22.532680262   -0.24288739736006
          7.8991765444   -0.48340836369878
          2.8767268321   -0.38952563875509
 p    1 1.00
         0.77459363955                   1
 p    1 1.00
         0.21037699698                   1
 d    1 1.00
                  0.65                   1

9 0
 s    5 1.00
          10449.827566  0.0054265953789407
          1571.7365221   0.040626378128836
          357.12065523    0.18359747852877
          100.25185935    0.47438948768198
          30.812727554    0.43735181104122
 s    3 1.00
          51.923789434  -0.092754154848099
          5.7045760975    0.56380825544207
          2.3508376809    0.50367044629712
 s    1 1.00
         0.44605124672                   1
 s    1 1.00
          0.1684885619                   1
 p    5 1.00
          307.66790569  -0.0088797025588865
          72.102015515  -0.064284071721237
          22.532680262   -0.24288739736006
          7.8991765444   -0.48340836369878
          2.8767268321   -0.38952563875509
 p    1 1.00
         0.77459363955                   1
 p    1 1.00
         0.21037699698                   1
 d    1 1.00
                  0.65                   1

[5d]
[7f]
[9g]

[MO]
 Sym= A
 Ene=               0
 Spin= Alpha
 Occup=    1.00000
   1    0.0011842287592109
   2    -0.0034780513059658
   3      0.01610549511969
   4    -0.026667902018038
   5    0.0055867441608985
   6    0.0050230155796252
   7    -0.018031189613942
   8     -0.01973737032097
   9    -0.016383996854153
  10     0.055734401930509
  11     0.061032602827062
  12     0.023878354350065
  13    -0.049965024295878
  14    -0.056013829068799
  15     0.018140059411515
  16    -0.044285051315775
  17     0.084606539237207
  18     0.049925949002323
  19    -0.051443491402355
  20     0.010610522877463
  21    -0.029813268204951
  22      0.05553002420115
  23     0.032496508795293
  24     -0.03463969071882
  25    4.1109380716814e-06
  26    0.00091486041395101
  27    0.00078030431795458
  28    -0.00043955813736116
  29    0.0021838070625868
  30    0.00085673984264305
  31    -0.00045119687222453
  32    1.5227557343849e-16
  33    2.2666232303234e-17
  34    1.8430006133155e-17
  35    -0.0029211058007016
  36    -0.012708811868637
  37    -1.6192795081796e-16
  38    -0.001808337224131
  39    -0.0037762300019053
  40    -1.0587111431769e-16
  41    -2.0116989507968e-18
  42    -0.00084746932022251
  43    0.00047508359485876
  44    1.7889625241154e-18
  45    -7.7470225741089e-18
  46    -0.0011842287592108
  47    0.0034780513059658
  48    -0.016105495119689
  49     0.026667902018038
  50    -0.0055867441608984
  51    0.0050230155796252
  52    -0.018031189613942
  53      0.01973737032097
  54    -0.016383996854153
  55     0.055734401930508
  56    -0.061032602827061
  57     0.023878354350065
  58    -0.049965024295877
  59     0.056013829068799
  60    -0.018140059411515
  61    -0.044285051315774
  62     0.084606539237206
  63    -0.049925949002322
  64     0.051443491402354
  65    -0.010610522877463
  66     -0.02981326820495
  67      0.05553002420115
  68    -0.032496508795292
  69      0.03463969071882
  70    -4.1109380716796e-06
  71     0.000914860413951
  72    0.00078030431795457
  73    0.00043955813736116
  74    -0.0021838070625867
  75    0.00085673984264304
  76    -0.00045119687222453
  77    -0.0044091468616202
  78     0.027688699397208
  79    -0.037596947749204
  80    -0.010662614757984
  81    0.0016645018198413
  82    0.0053474195385293
  83     0.074806410813023
  84    0.0027850547639673
  85    0.0088728202748595
  86      0.12653964048994
  87    0.0016405748757366
  88     0.023816530233457
  89      0.18279117359654
  90    -0.0073526468144286
  91    -0.0012913695529922
  92    0.0055214564200015
  93    0.00088585787044057
  94    -9.7439491044992e-05
  95     0.008887058581743
  96    -0.056143178289902
  97     0.078684112686064
  98     0.018834553106342
  99    -0.062605957506803
 100     0.059521289005404
 101     0.089626764844522
 102     -0.10569785730561
 103      0.10051674894214
 104      0.15074098773304
 105     -0.14689184985151
 106      0.14561570339771
 107      0.21670300942183
 108    0.0062855952005877
 109    -0.011402706767954
 110    0.0090659881473538
 111    0.0036349231419043
 112    -0.0060889622682992
 113    -0.0066448526822817
 114     0.041871370799093
 115     -0.05621928760295
 116    -0.022839018163503
 117     0.028844605896381
 118     0.094928115461315
 119    0.0037921591025011
 120     0.048927882392154
 121      0.15937153327827
 122    0.0066679314605714
 123     0.066564118071623
 124      0.23711582523256
 125     0.016785256245458
 126    0.0047938428474651
 127    0.0014222523050009
 128    0.0069492190811733
 129    0.0075929078254826
 130    -0.0070521806436492
 131    0.0044091468616201
 132    -0.027688699397208
 133     0.037596947749203
 134     0.010662614757983
 135    0.0016645018198413
 136    0.0053474195385292
 137    -0.074806410813022
 138    0.0027850547639673
 139    0.0088728202748593
 140     -0.12653964048994
 141    0.0016405748757366
 142     0.023816530233456
 143     -0.18279117359654
 144    0.0073526468144285
 145    -0.0012913695529922
 146    0.0055214564200014
 147    -0.00088585787044057
 148    9.7439491044991e-05
 149    -0.0088870585817428
 150     0.056143178289901
 151    -0.078684112686063
 152    -0.018834553106342
 153    -0.062605957506802
 154     0.059521289005404
 155     -0.08962676484452
 156     -0.10569785730561
 157      0.10051674894214
 158     -0.15074098773304
 159     -0.14689184985151
 160       0.1456157033977
 161     -0.21670300942183
 162    -0.0062855952005876
 163    -0.011402706767954
 164    0.0090659881473537
 165    -0.0036349231419043
 166    0.0060889622682991
 167    0.0066448526822815
 168    -0.041871370799093
 169     0.056219287602949
 170     0.022839018163503
 171     0.028844605896381
 172     0.094928115461314
 173    -0.0037921591025011
 174     0.048927882392154
 175      0.15937153327827
 176    -0.0066679314605714
 177     0.066564118071622
 178      0.23711582523255
 179    -0.016785256245458
 180    -0.004793842847465
 181    0.0014222523050009
 182    0.0069492190811732
 183    -0.0075929078254825
 184    0.0070521806436492
 Sym= A
 Ene=               1
 Spin= Alpha
 Occup=    1.00000
   1    -0.00090780156346594
   2    0.0025807105201387
   3    -0.012786137820883
   4     0.025228569967376
   5    -0.0096296457454878
   6    -0.0036156682596593
   7     0.019797385445491
   8     0.018677811991117
   9     0.012255237536975
  10    -0.061072371131696
  11     -0.05783015633443
  12    -0.017464964704255
  13     0.056219523086793
  14     0.052280779569063
  15    -0.024698230779915
  16     0.041047026820689
  17    -0.082238263015313
  18    -0.047665061354142
  19     0.053865167554331
  20    -0.014752272382081
  21     0.027333076786097
  22    -0.053262567020867
  23    -0.032602343612236
  24     0.036105362811299
  25    -0.00011993656794301
  26    -0.00092092119993484
  27    -0.00068409615176273
  28    0.00056040955382289
  29    -0.0021974669562891
  30    -0.00092001676909802
  31    0.00039605217975789
  32    -0.012053364059012
  33    -0.0051559731859407
  34    -0.0039613836998922
  35    -2.0259426231631e-17
  36    -9.3519442065355e-17
  37     0.017671329208501
  38    -1.3402942207294e-17
  39    -2.6620480879686e-17
  40     0.010324799309871
  41    0.0001936692274665
  42    -5.7019450674923e-18
  43    2.9644191604783e-18
  44    -0.000316744894499
  45    0.0011334855287139
  46    -0.00090780156346597
  47    0.0025807105201388
  48    -0.012786137820883
  49     0.025228569967376
  50    -0.0096296457454879
  51    0.0036156682596594
  52    -0.019797385445492
  53     0.018677811991117
  54    -0.012255237536975
  55     0.061072371131697
  56    -0.057830156334431
  57     0.017464964704256
  58    -0.056219523086794
  59     0.052280779569064
  60    -0.024698230779916
  61    -0.041047026820689
  62     0.082238263015314
  63    -0.047665061354142
  64     0.053865167554332
  65    -0.014752272382081
  66    -0.027333076786097
  67     0.053262567020868
  68    -0.032602343612236
  69     0.036105362811299
  70    -0.00011993656794302
  71    0.00092092119993486
  72    0.00068409615176274
  73    0.0005604095538229
  74    -0.0021974669562892
  75    0.00092001676909803
  76    -0.00039605217975789
  77    0.0039664443355209
  78    -0.024921071869716
  79     0.033510469077056
  80     0.012127962384753
  81    -0.0013332915890648
  82    -0.010874032227433
  83    -0.070101253365573
  84    -0.0024514519693834
  85    -0.018068796875294
  86      -0.1183864327414
  87    -0.00044440389224878
  88    -0.037589485548013
  89     -0.17334499742581
  90    0.0068312199460723
  91    0.0015681563803333
  92    -0.004737447747143
  93    -0.00025719729948803
  94    8.1006650584394e-06
  95    -0.0089709717441693
  96       0.0566922095938
  97     -0.07964922008906
  98    -0.018707438974414
  99      0.06599269707928
 100    -0.060965526386057
 101    -0.087078823568607
 102      0.11140499847706
 103     -0.10274605553278
 104     -0.14637291530432
 105      0.15554186623391
 106     -0.15079901481082
 107     -0.21072176981717
 108    -0.0060817810042777
 109     0.011695731730163
 110    -0.0091005165314225
 111    -0.0038435610678433
 112    0.0064152285566848
 113    0.0068333411974212
 114    -0.043030831338721
 115     0.057518741559593
 116     0.023302959158854
 117    -0.024250444761632
 118    -0.098422187162694
 119    0.00033921452551038
 120     -0.04107354261662
 121     -0.16550638475051
 122    0.00021017291832002
 123    -0.054932975690198
 124     -0.24377383946303
 125    -0.0062254612602852
 126    -0.0047160872626164
 127    -0.0014099209847316
 128    -0.0074289625833963
 129    -0.0078114571729058
 130    0.0067913617500395
 131     0.003966444335521
 132    -0.024921071869716
 133     0.033510469077056
 134     0.012127962384753
 135    0.0013332915890649
 136     0.010874032227433
 137    -0.070101253365574
 138    0.0024514519693835
 139     0.018068796875294
 140      -0.1183864327414
 141    0.00044440389224885
 142     0.037589485548013
 143     -0.17334499742581
 144    0.0068312199460724
 145    -0.0015681563803333
 146     0.004737447747143
 147    -0.00025719729948804
 148     8.10066505844e-06
 149    -0.0089709717441694
 150     0.056692209593801
 151    -0.079649220089061
 152    -0.018707438974414
 153    -0.065992697079281
 154     0.060965526386058
 155    -0.087078823568608
 156     -0.11140499847706
 157      0.10274605553278
 158     -0.14637291530432
 159     -0.15554186623392
 160      0.15079901481082
 161     -0.21072176981717
 162    -0.0060817810042777
 163    -0.011695731730163
 164    0.0091005165314226
 165    -0.0038435610678433
 166    0.0064152285566849
 167    0.0068333411974213
 168    -0.043030831338722
 169     0.057518741559593
 170     0.023302959158855
 171     0.024250444761633
 172     0.098422187162696
 173    0.00033921452551038
 174      0.04107354261662
 175      0.16550638475051
 176    0.00021017291832003
 177     0.054932975690199
 178      0.24377383946304
 179    -0.0062254612602853
 180    -0.0047160872626164
 181    0.0014099209847316
 182    0.0074289625833964
 183    -0.007811457172906
 184    0.0067913617500396
 Sym= A
 Ene=               2
 Spin= Alpha
 Occup=    1.00000
   1    0.0019128521853565
   2    -0.0057054588813754
   3     0.025573410536087
   4    -0.035889407404567
   5     0.025566384025154
   6    2.4765624385058e-05
   7     0.017666353837357
   8    -0.016920108705463
   9    -0.0013223552290163
  10    -0.055624080856718
  11     0.053194670221879
  12     0.016503321002379
  13     0.055790115432353
  14    -0.052957214011405
  15    -0.076880389875512
  16    -0.0084026282211471
  17     0.035570761454031
  18     -0.02043907388821
  19     0.019802807119409
  20    -0.055113400175527
  21    -0.0071380132036565
  22      0.02626889611456
  23    -0.014931342890945
  24     0.012876912905562
  25    -0.00062011698481527
  26    -0.0011934883582034
  27     0.001105541896223
  28    0.00093722190013198
  29    0.00045430473425803
  30    -0.0010366433693353
  31    -0.0005700372024295
  32    3.2358809531621e-16
  33    2.7049389109146e-17
  34    6.4407417480733e-17
  35    -0.00076837401058422
  36     0.012851638834507
  37    5.1926032798745e-17
  38    -0.0014209915404607
  39    0.0024949975262142
  40    2.3480831000842e-17
  41    2.7026264895429e-18
  42    -0.00040479942304953
  43    0.00073339810374868
  44    1.6903418410732e-18
  45    -1.0847555036534e-18
  46    -0.0019128521853566
  47    0.0057054588813755
  48    -0.025573410536087
  49     0.035889407404567
  50    -0.025566384025154
  51    2.4765624385108e-05
  52     0.017666353837357
  53     0.016920108705463
  54    -0.0013223552290164
  55    -0.055624080856718
  56    -0.053194670221879
  57     0.016503321002379
  58     0.055790115432353
  59     0.052957214011405
  60     0.076880389875512
  61    -0.0084026282211472
  62     0.035570761454031
  63      0.02043907388821
  64    -0.019802807119409
  65     0.055113400175528
  66    -0.0071380132036566
  67      0.02626889611456
  68     0.014931342890945
  69    -0.012876912905562
  70    0.00062011698481527
  71    -0.0011934883582034
  72     0.001105541896223
  73    -0.00093722190013199
  74    -0.00045430473425803
  75    -0.0010366433693353
  76    -0.00057003720242951
  77    -0.0087713213659061
  78     0.054920519851441
  79    -0.070869947437146
  80     -0.02622224111879
  81    0.0059526976222465
  82     -0.09615894009129
  83     0.091710809139795
  84      0.01047792065683
  85     -0.16130661696725
  86      0.15465606206499
  87     0.010075506539454
  88     -0.23912835801139
  89      0.21451324305646
  90    -0.0082957241768069
  91    -0.0014753882395931
  92     0.016435190746762
  93    0.0062482996828118
  94    0.00066706233164709
  95    -0.00026481376428222
  96    0.0016097569977839
  97    0.00047531705768687
  98    -0.011039342251696
  99     0.013711039299714
 100    -0.047965841994595
 101     0.041170751943072
 102     0.022996559390616
 103     -0.07990246709848
 104     0.069165971146098
 105     0.036426833082869
 106     -0.13248592537738
 107      0.10758625512269
 108    0.0029256879087701
 109    -7.0203207276665e-05
 110    -0.00092637845647307
 111    0.00017275868723298
 112    0.0026928185432768
 113    0.0052821738466033
 114    -0.033218297544046
 115     0.045256911077458
 116    0.0082750516240012
 117    -0.015496608065363
 118    -0.065821177786354
 119     0.070435315105252
 120    -0.025760427492516
 121      -0.1105393390083
 122      0.11708160231824
 123    -0.036352931047899
 124     -0.15724483812217
 125      0.18429105801051
 126    -0.0014632436710717
 127    -0.0023018797509479
 128    -0.010287132183832
 129    -0.0058722393182923
 130    0.0041576157410204
 131    0.0087713213659061
 132    -0.054920519851441
 133     0.070869947437147
 134      0.02622224111879
 135    0.0059526976222465
 136     -0.09615894009129
 137    -0.091710809139795
 138      0.01047792065683
 139     -0.16130661696725
 140     -0.15465606206499
 141     0.010075506539454
 142      -0.2391283580114
 143     -0.21451324305646
 144    0.0082957241768069
 145    -0.0014753882395931
 146     0.016435190746762
 147    -0.0062482996828119
 148    -0.00066706233164709
 149    0.00026481376428222
 150    -0.0016097569977838
 151    -0.00047531705768695
 152     0.011039342251696
 153     0.013711039299714
 154    -0.047965841994596
 155    -0.041170751943073
 156     0.022996559390616
 157     -0.07990246709848
 158    -0.069165971146099
 159     0.036426833082868
 160     -0.13248592537738
 161     -0.10758625512269
 162    -0.0029256879087701
 163    -7.020320727669e-05
 164    -0.00092637845647306
 165    -0.00017275868723299
 166    -0.0026928185432768
 167    -0.0052821738466033
 168     0.033218297544046
 169    -0.045256911077458
 170    -0.0082750516240012
 171    -0.015496608065363
 172    -0.065821177786354
 173    -0.070435315105252
 174    -0.025760427492516
 175      -0.1105393390083
 176     -0.11708160231825
 177    -0.036352931047899
 178     -0.15724483812217
 179     -0.18429105801051
 180    0.0014632436710717
 181    -0.0023018797509479
 182    -0.010287132183832
 183    0.0058722393182923
 184    -0.0041576157410204
 Sym= A
 Ene=               3
 Spin= Alpha
 Occup=    1.00000
   1    0.0017683843043124
   2    -0.0051689008029613
   3     0.024188653982896
   4    -0.035665519387786
   5     0.019332866618794
   6    -0.0015940507145423
   7     0.017599597319557
   8    -0.017679157398862
   9    0.0031816813564387
  10    -0.055161739571449
  11     0.055707037198486
  12     0.015845908259354
  13     0.052647504254563
  14    -0.056524298857168
  15    -0.071700379543633
  16    -0.007822989037104
  17     0.041223773743754
  18    -0.022651511646589
  19     0.021027365071287
  20    -0.051500360799184
  21    -0.0054897066749606
  22     0.029733547340539
  23     -0.01653018542621
  24     0.014870115363545
  25    -0.00057708527337078
  26    -0.0011874953902213
  27    0.0010653587714796
  28    0.00088048711629892
  29    0.00055877686476496
  30    -0.0010024583747281
  31    -0.00062528304248175
  32    0.0090001283827471
  33    0.0056401314040866
  34    0.0032800929004878
  35    -1.4348293303556e-18
  36    1.5150528504531e-17
  37    -0.015415561618119
  38    -7.743234113094e-18
  39    -5.6777360228017e-18
  40    -0.0043433881490814
  41    -0.0011676138004455
  42    -1.2472046900638e-18
  43    1.549238937745e-18
  44    -0.0003263979113436
  45    0.00060977875141351
  46    0.0017683843043124
  47    -0.0051689008029612
  48     0.024188653982896
  49    -0.035665519387785
  50     0.019332866618794
  51    0.0015940507145423
  52    -0.017599597319557
  53    -0.017679157398861
  54    -0.0031816813564387
  55     0.055161739571449
  56     0.055707037198486
  57    -0.015845908259354
  58    -0.052647504254563
  59    -0.056524298857168
  60    -0.071700379543633
  61     0.007822989037104
  62    -0.041223773743754
  63    -0.022651511646589
  64     0.021027365071287
  65    -0.051500360799183
  66    0.0054897066749606
  67    -0.029733547340539
  68     -0.01653018542621
  69     0.014870115363545
  70    -0.00057708527337078
  71    0.0011874953902213
  72    -0.0010653587714796
  73    0.00088048711629892
  74    0.00055877686476496
  75    0.0010024583747281
  76    0.00062528304248174
  77    -0.0087952431115287
  78     0.054926033593365
  79     -0.06857299769925
  80    -0.030425560378998
  81    0.0045308458297133
  82    -0.093237661190616
  83     0.096371973305912
  84    0.0074092284789796
  85     -0.15606065964997
  86      0.16234751881202
  87    0.0090792061893445
  88     -0.23225629922617
  89      0.22699271018365
  90    -0.0086508674542865
  91    -0.0015389693453948
  92     0.016637899960594
  93    0.0058473396787017
  94    0.00094914001981163
  95    0.00022920638913769
  96    -0.0015146620238663
  97    0.0046857162053274
  98    -0.009135532755974
  99    -0.0008635860128721
 100    -0.048283897167447
 101     0.038793994785567
 102    -0.0016523825142605
 103    -0.080542957087824
 104     0.065034610801421
 105    2.2151554394354e-05
 106     -0.13312567190241
 107      0.10145120451377
 108    0.0025219891104637
 109    -0.0011581161183588
 110    -0.00075190932799813
 111    0.00085610969266846
 112    0.0020828213817331
 113    0.0050493981897715
 114    -0.031774195195136
 115     0.043791864468709
 116    0.0067795204342726
 117    -0.010970938712072
 118    -0.062507562979115
 119     0.073671539241065
 120    -0.018361223781132
 121     -0.10506344788358
 122       0.1225578101632
 123     -0.02362636459208
 124     -0.14878444204741
 125      0.19301234172153
 126    -0.0010398371406697
 127    -0.0021190066186139
 128    -0.010224105989203
 129    -0.0056970292067418
 130    0.0037903945610505
 131    -0.0087952431115286
 132     0.054926033593365
 133     -0.06857299769925
 134    -0.030425560378998
 135    -0.0045308458297132
 136     0.093237661190616
 137     0.096371973305912
 138    -0.0074092284789794
 139      0.15606065964997
 140      0.16234751881202
 141    -0.0090792061893442
 142      0.23225629922617
 143      0.22699271018365
 144    -0.0086508674542865
 145    0.0015389693453948
 146    -0.016637899960594
 147    0.0058473396787017
 148    0.00094914001981162
 149    0.00022920638913767
 150    -0.0015146620238663
 151    0.0046857162053274
 152    -0.0091355327559739
 153    0.00086358601287218
 154     0.048283897167447
 155     0.038793994785566
 156    0.0016523825142607
 157     0.080542957087824
 158     0.065034610801421
 159    -2.2151554394148e-05
 160      0.13312567190241
 161      0.10145120451377
 162    0.0025219891104637
 163    0.0011581161183588
 164    0.00075190932799812
 165    0.00085610969266846
 166    0.0020828213817331
 167    0.0050493981897714
 168    -0.031774195195136
 169     0.043791864468709
 170    0.0067795204342726
 171     0.010970938712071
 172     0.062507562979115
 173     0.073671539241065
 174     0.018361223781131
 175      0.10506344788358
 176       0.1225578101632
 177      0.02362636459208
 178      0.14878444204741
 179      0.19301234172153
 180    -0.0010398371406697
 181    0.0021190066186138
 182     0.010224105989203
 183    -0.0056970292067418
 184    0.0037903945610505
 Sym= A
 Ene=               4
 Spin= Alpha
 Occup=    1.00000
   1    0.0064118084751331
   2    -0.017346575127229
   3     0.094277619158621
   4      -0.1855342646781