[Molden Format]
made by pyscf v[2.1.1]
[Atoms] (AU)
Fe   1   26     3.17068844873907     0.00098706064664     0.12237737881307
O   2   8     0.00000000000000     0.00000000000000    -0.89004350580623
Fe   3   26    -3.17068844873907    -0.00098706064664     0.12237737881307
Cl   4   17     3.53383895113107    -2.07485195383062     3.76228752659000
Cl   5   17     5.54152580550813    -1.85590924879884    -2.78672786652360
Cl   6   17     4.48169216485503     3.92976278472880    -0.95330240907949
Cl   7   17    -3.53383895113107     2.07485195383062     3.76228752659000
Cl   8   17    -5.54152580550813     1.85590924879884    -2.78672786652360
Cl   9   17    -4.48169216485503    -3.92976278472880    -0.95330240907949
[GTO]
1 0
 s    6 1.00
          60923.640643  0.0017552243692958
          9147.8893982   0.013449023284001
          2081.3505927   0.066678874640978
          587.55977067    0.23176348548844
           191.0904399    0.46945550248188
          65.732730112     0.3596824938678
 s    3 1.00
          127.25891928   -0.10723431835929
           14.83091301    0.62971616328466
          6.0653307408    0.44472317896179
 s    3 1.00
           10.44994371   -0.21694289195548
          1.7245228003    0.69457867408393
         0.71772177325    0.43298308896347
 s    1 1.00
        0.091449828308                   1
 s    1 1.00
        0.033706691021                   1
 p    5 1.00
          773.43750995  0.0091440529992506
          182.15149714   0.067887577136571
          57.547272758    0.26167978878504
          20.614988935    0.51088040113251
           7.634855789    0.33235475570224
 p    3 1.00
           3.871932799    0.33193859098144
          1.4924724132     0.5553666555499
         0.56061284958    0.23106034201617
 p    1 1.00
              0.134915                   1
 d    4 1.00
          38.968133419   0.033335938558743
          10.800067078    0.17766212505983
          3.6136457999      0.441281781625
          1.2129967888    0.57089200490673
 d    1 1.00
          0.3652439317                   1
 f    1 1.00
                 1.598                   1

2 0
 s    5 1.00
          2266.1767785  -0.0053893503921743
          340.87010191   -0.04023472138896
          77.363135167   -0.18008184205526
           21.47964494   -0.46828857657651
          6.6589433124   -0.44692617160187
 s    1 1.00
         0.80975975668                   1
 s    1 1.00
         0.25530772234                   1
 p    3 1.00
          17.721504317   0.062630248763161
           3.863550544    0.33331138482352
          1.0480920883    0.74148638308122
 p    1 1.00
         0.27641544411                   1
 d    1 1.00
                   1.2                   1

3 0
 s    6 1.00
          60923.640643  0.0017552243692958
          9147.8893982   0.013449023284001
          2081.3505927   0.066678874640978
          587.55977067    0.23176348548844
           191.0904399    0.46945550248188
          65.732730112     0.3596824938678
 s    3 1.00
          127.25891928   -0.10723431835929
           14.83091301    0.62971616328466
          6.0653307408    0.44472317896179
 s    3 1.00
           10.44994371   -0.21694289195548
          1.7245228003    0.69457867408393
         0.71772177325    0.43298308896347
 s    1 1.00
        0.091449828308                   1
 s    1 1.00
        0.033706691021                   1
 p    5 1.00
          773.43750995  0.0091440529992506
          182.15149714   0.067887577136571
          57.547272758    0.26167978878504
          20.614988935    0.51088040113251
           7.634855789    0.33235475570224
 p    3 1.00
           3.871932799    0.33193859098144
          1.4924724132     0.5553666555499
         0.56061284958    0.23106034201617
 p    1 1.00
              0.134915                   1
 d    4 1.00
          38.968133419   0.033335938558743
          10.800067078    0.17766212505983
          3.6136457999      0.441281781625
          1.2129967888    0.57089200490673
 d    1 1.00
          0.3652439317                   1
 f    1 1.00
                 1.598                   1

4 0
 s    5 1.00
          10449.827566  0.0054265953789407
          1571.7365221   0.040626378128836
          357.12065523    0.18359747852877
          100.25185935    0.47438948768198
          30.812727554    0.43735181104122
 s    3 1.00
          51.923789434  -0.092754154848099
          5.7045760975    0.56380825544207
          2.3508376809    0.50367044629712
 s    1 1.00
         0.44605124672                   1
 s    1 1.00
          0.1684885619                   1
 p    5 1.00
          307.66790569  -0.0088797025588865
          72.102015515  -0.064284071721237
          22.532680262   -0.24288739736006
          7.8991765444   -0.48340836369878
          2.8767268321   -0.38952563875509
 p    1 1.00
         0.77459363955                   1
 p    1 1.00
         0.21037699698                   1
 d    1 1.00
                  0.65                   1

5 0
 s    5 1.00
          10449.827566  0.0054265953789407
          1571.7365221   0.040626378128836
          357.12065523    0.18359747852877
          100.25185935    0.47438948768198
          30.812727554    0.43735181104122
 s    3 1.00
          51.923789434  -0.092754154848099
          5.7045760975    0.56380825544207
          2.3508376809    0.50367044629712
 s    1 1.00
         0.44605124672                   1
 s    1 1.00
          0.1684885619                   1
 p    5 1.00
          307.66790569  -0.0088797025588865
          72.102015515  -0.064284071721237
          22.532680262   -0.24288739736006
          7.8991765444   -0.48340836369878
          2.8767268321   -0.38952563875509
 p    1 1.00
         0.77459363955                   1
 p    1 1.00
         0.21037699698                   1
 d    1 1.00
                  0.65                   1

6 0
 s    5 1.00
          10449.827566  0.0054265953789407
          1571.7365221   0.040626378128836
          357.12065523    0.18359747852877
          100.25185935    0.47438948768198
          30.812727554    0.43735181104122
 s    3 1.00
          51.923789434  -0.092754154848099
          5.7045760975    0.56380825544207
          2.3508376809    0.50367044629712
 s    1 1.00
         0.44605124672                   1
 s    1 1.00
          0.1684885619                   1
 p    5 1.00
          307.66790569  -0.0088797025588865
          72.102015515  -0.064284071721237
          22.532680262   -0.24288739736006
          7.8991765444   -0.48340836369878
          2.8767268321   -0.38952563875509
 p    1 1.00
         0.77459363955                   1
 p    1 1.00
         0.21037699698                   1
 d    1 1.00
                  0.65                   1

7 0
 s    5 1.00
          10449.827566  0.0054265953789407
          1571.7365221   0.040626378128836
          357.12065523    0.18359747852877
          100.25185935    0.47438948768198
          30.812727554    0.43735181104122
 s    3 1.00
          51.923789434  -0.092754154848099
          5.7045760975    0.56380825544207
          2.3508376809    0.50367044629712
 s    1 1.00
         0.44605124672                   1
 s    1 1.00
          0.1684885619                   1
 p    5 1.00
          307.66790569  -0.0088797025588865
          72.102015515  -0.064284071721237
          22.532680262   -0.24288739736006
          7.8991765444   -0.48340836369878
          2.8767268321   -0.38952563875509
 p    1 1.00
         0.77459363955                   1
 p    1 1.00
         0.21037699698                   1
 d    1 1.00
                  0.65                   1

8 0
 s    5 1.00
          10449.827566  0.0054265953789407
          1571.7365221   0.040626378128836
          357.12065523    0.18359747852877
          100.25185935    0.47438948768198
          30.812727554    0.43735181104122
 s    3 1.00
          51.923789434  -0.092754154848099
          5.7045760975    0.56380825544207
          2.3508376809    0.50367044629712
 s    1 1.00
         0.44605124672                   1
 s    1 1.00
          0.1684885619                   1
 p    5 1.00
          307.66790569  -0.0088797025588865
          72.102015515  -0.064284071721237
          22.532680262   -0.24288739736006
          7.8991765444   -0.48340836369878
          2.8767268321   -0.38952563875509
 p    1 1.00
         0.77459363955                   1
 p    1 1.00
         0.21037699698                   1
 d    1 1.00
                  0.65                   1

9 0
 s    5 1.00
          10449.827566  0.0054265953789407
          1571.7365221   0.040626378128836
          357.12065523    0.18359747852877
          100.25185935    0.47438948768198
          30.812727554    0.43735181104122
 s    3 1.00
          51.923789434  -0.092754154848099
          5.7045760975    0.56380825544207
          2.3508376809    0.50367044629712
 s    1 1.00
         0.44605124672                   1
 s    1 1.00
          0.1684885619                   1
 p    5 1.00
          307.66790569  -0.0088797025588865
          72.102015515  -0.064284071721237
          22.532680262   -0.24288739736006
          7.8991765444   -0.48340836369878
          2.8767268321   -0.38952563875509
 p    1 1.00
         0.77459363955                   1
 p    1 1.00
         0.21037699698                   1
 d    1 1.00
                  0.65                   1

[5d]
[7f]
[9g]

[MO]
 Sym= A
 Ene=               0
 Spin= Alpha
 Occup=    1.00000
   1    0.0015216727781891
   2    -0.0045366106297326
   3     0.020199056081994
   4    -0.035331717054145
   5     0.013440332227672
   6    0.0023096660734982
   7    0.0010235594746947
   8    -0.0058459216004225
   9    -0.0072183105411592
  10    -0.0033027483966645
  11     0.018203738122641
  12    0.0067019153765505
  13    0.0024798122268043
  14     -0.02502158003709
  15      0.20563328621372
  16     -0.39194393377417
  17     -0.58832972925594
  18      0.43935266420114
  19       0.1830056954584
  20     0.054619056991133
  21     -0.10571599443239
  22     -0.15861804797615
  23       0.1195214333805
  24     0.049792054349644
  25    0.00088511408695449
  26    -0.00087303198206319
  27    -0.0010873915892046
  28    5.6321550685887e-05
  29    -0.00058901234071157
  30    0.00092438353482608
  31    0.00019486000148646
  32    1.0115029413209e-06
  33     0.001050612930163
  34    -0.0024145806604052
  35    -0.00060894558297018
  36    -0.0024340226353173
  37    -0.041057090398299
  38    -0.0010182146285315
  39    -0.002250962692355
  40    -0.040292632877373
  41    -0.00023880022682577
  42    0.0008885524977502
  43    -0.00045815649651956
  44    0.00013043304466611
  45    0.00019125308413577
  46    0.00029352907871753
  47    -0.00088848193003763
  48     0.003852259038617
  49    -0.0043667499037685
  50    0.0014559445382645
  51    -0.0015156117406771
  52    1.2517737138121e-05
  53    -0.00085295394738744
  54    0.0048001615180242
  55    -4.0725264079465e-05
  56    0.0027192082440846
  57    -0.0038570765456488
  58    -3.5985915004721e-05
  59    -0.0068420497986728
  60    0.00083234496576962
  61    -0.0014689048588023
  62    0.00014755470939413
  63    -0.00071826751795944
  64    0.00014109639387513
  65     0.001059458422681
  66    -0.0021169367170829
  67    0.00021454679781483
  68    -0.00028059453145215
  69    -0.00024090963938778
  70    7.3314099092541e-05
  71    0.00031800554073436
  72    3.2458029718269e-05
  73    -0.00013576646696654
  74    1.4451881873709e-05
  75    -0.00019537709702008
  76    -2.9335508591698e-05
  77    -0.001915862043599
  78     0.012564746068221
  79    -0.015876207267035
  80    -0.010848117919775
  81     0.014779963324862
  82    -0.0090459683816559
  83     0.016352816706364
  84     0.025108550850401
  85    -0.015624716064863
  86      0.02830035519244
  87     0.041098743410857
  88    -0.025626785966907
  89     0.046788536563526
  90    -0.00029550253196778
  91    0.0015114704736611
  92    -0.00026731742925194
  93    0.0010503309199691
  94    -0.0010184595249533
  95    0.00055089203962122
  96    -0.0036356906393346
  97    0.0063903498537448
  98    -0.0017744128318123
  99    -0.015953607470819
 100    -0.023339826244009
 101      0.01024374047882
 102     -0.02701989361614
 103    -0.039308257024374
 104     0.017239426861813
 105    -0.043723003949236
 106     -0.06693252298668
 107     0.028600429262228
 108    -0.00043703490077943
 109    0.0013456641468403
 110    0.0017610206632354
 111    -0.0021492316603254
 112    -0.0013394066489328
 113     0.000401412893905
 114    -0.0026259562001368
 115    0.0044234172115348
 116    0.00021436786533705
 117    -0.011862577944815
 118    0.0056780774345269
 119     0.025422126427988
 120    -0.019891594199007
 121    0.0095916089225085
 122     0.042645324598623
 123    -0.033600145345566
 124     0.016483828509519
 125     0.072357607777896
 126    -0.0011813225319221
 127    0.0013381190426422
 128    0.0017270614630244
 129    -0.0017619233834267
 130    -0.00050593071642751
 131    0.00020706615606395
 132    -0.0014015149187495
 133    0.0027298513810968
 134    0.0009514661802305
 135    0.0017589450981614
 136    -0.00054885685074501
 137    -0.00078675535183266
 138    0.0032165148241571
 139    -0.00097079477912538
 140    -0.0013864412615575
 141      0.00411414908393
 142    -0.0021415530394686
 143    -0.0029660794246979
 144    0.0001147768821411
 145    0.00027377257195297
 146    -2.4393440900679e-05
 147    -0.00018906223142749
 148    0.00018942000137022
 149    -6.2562139541914e-05
 150    0.00041101451487454
 151    -0.00033867186553103
 152    -0.0023529862255631
 153    -0.00073503614903746
 154    6.9636496183804e-05
 155    0.00056469765846073
 156    -0.0012891378821383
 157    8.4428668426794e-05
 158    0.00098219791535729
 159    -0.0024736608322423
 160    0.00093777093139755
 161    0.00078132923950742
 162    -3.5048333843771e-05
 163    -7.7558870797249e-05
 164    2.8347247758033e-05
 165    9.8079956967338e-05
 166    -2.4768137363031e-05
 167    5.6738817249286e-06
 168    -4.9067968050564e-05
 169    0.00042808631184321
 170    -0.0013035901391857
 171    -1.1387590766487e-05
 172    2.7061233778332e-05
 173    0.00068238354171498
 174    1.2313687400691e-05
 175    6.8073357191663e-05
 176    0.0011598601554843
 177    -0.00018837794255288
 178    -0.00039493415888131
 179    0.0020307322182185
 180    1.5024024803664e-05
 181    -0.00013492814957329
 182    -4.6555806900001e-05
 183    7.2916736006349e-06
 184    -2.0194448611329e-05
 Sym= A
 Ene=               1
 Spin= Alpha
 Occup=    1.00000
   1    0.00073480582808344
   2    -0.0021924866523508
   3     0.009739905159412
   4    -0.017838703288356
   5    0.0052390857843011
   6    0.0010617158454164
   7    -0.0080996767324187
   8    -0.0032273197264496
   9    -0.0032798517069143
  10     0.025017802176723
  11    0.0098654969503767
  12    0.0020786720861674
  13    -0.032649086312314
  14    -0.015947932325524
  15     -0.61525715394402
  16    -0.071494174900276
  17     -0.43795652533549
  18      -0.2024707550872
  19     -0.38863385136097
  20     -0.16514280594868
  21     -0.01864499402099
  22     -0.11745479373799
  23    -0.053617939954838
  24     -0.10421619639951
  25    -0.00088970057633134
  26    -0.0012166513913904
  27    -0.00060463104086954
  28    -0.00064885692679684
  29    -0.0013405163319125
  30    -0.00011619138254266
  31    -0.0011665207742452
  32    0.0012699505118236
  33    0.0037671758192327
  34    0.00039166565469946
  35    0.0046661440177743
  36     -0.05942104391424
  37     -0.03735419495917
  38    0.0050228266444324
  39    -0.056850865489733
  40    -0.036625218941669
  41    -0.0006963232542356
  42    0.0010838345613493
  43    -0.00091847594818066
  44    -0.00044303426348815
  45    0.0013276437384767
  46    0.00038575439073169
  47    -0.0011465863617444
  48    0.0051573415319199
  49    -0.0065831293280265
  50    0.0026841789620467
  51    -0.0016933701505971
  52    -0.0017126253061537
  53    -0.00053004012320165
  54    0.0053887860665533
  55      0.00545013973812
  56    0.0016951821008004
  57    -0.0040798464904226
  58    -0.010894665978533
  59    -0.006025705219949
  60    0.0010527730054014
  61    -0.00050165729532762
  62    0.00040766470083085
  63    -0.0007885002670553
  64    -0.0017086188400281
  65    0.0010551521693374
  66    -0.0018855674786676
  67    0.00099883081131087
  68    -0.00034822112391226
  69    -0.0039298123703739
  70    3.4354831847539e-05
  71    0.00029648639865681
  72    0.00011540193968757
  73    -0.00011908225677593
  74    0.00027238199536908
  75    -0.00022264873123793
  76    -0.00052265015061471
  77    0.00020532719049631
  78    -0.0013406450407043
  79    0.0019529011974818
  80    0.0016105610973979
  81    -0.0048201013933801
  82     0.026850800970321
  83     0.012833833703693
  84    -0.008149604421204
  85     0.045343951585807
  86     0.021738944287645
  87    -0.013690731114386
  88     0.076983251669043
  89      0.03625653604951
  90    0.0029481576996129
  91    -0.00050536004716329
  92    0.0014905003838527
  93    0.0014492884889201
  94    0.00038844472994522
  95    0.0011574687334575
  96    -0.0076459988149149
  97     0.011628223414757
  98    0.0015585604346624
  99    -0.019309418466551
 100     0.016617205400974
 101    -0.0097956301302952
 102    -0.032883593895063
 103     0.028106048734552
 104    -0.016293388738048
 105      -0.0529765499173
 106     0.047631283941106
 107     -0.02823948773181
 108    0.0026869141207819
 109    -0.00035836203744812
 110    -7.632191899793e-05
 111    -0.00049909476086769
 112    0.0014606243391598
 113    -0.0018349178461816
 114     0.012011880577585
 115    -0.015810712563144
 116    -0.0084314838360341
 117     0.016981035718065
 118     0.016042073226801
 119    0.0030586633680284
 120     0.028721594250515
 121     0.027387820864183
 122    0.0051337140918339
 123     0.047424789040256
 124     0.045856568262702
 125    0.0089451582544889
 126    -0.00080359649995351
 127    -0.00020846325786093
 128    0.0012344496296976
 129    0.0010303961745057
 130    0.00084767219690758
 131    0.00024234192014064
 132    -0.0016037562168553
 133    0.0022112209451216
 134    0.0040777148371949
 135    0.0022105591513081
 136    1.0623395329598e-05
 137    -0.0016601164272711
 138    0.0038521190247656
 139    7.4175192796972e-05
 140    -0.0028415031883807
 141    0.0059995736520802
 142    -0.0010608057474274
 143    -0.0065950424298112
 144    4.3853168464391e-05
 145    0.00044035429734106
 146    5.036887183887e-05
 147    -0.00025151719377776
 148    6.1514620542616e-05
 149    6.2848767704179e-05
 150    -0.00042554789588719
 151    0.00092712814232052
 152    -0.00036653530460654
 153    0.00056547895451305
 154    0.00037920842504504
 155    0.00065269995374675
 156    0.0010114333450147
 157    0.00055212959645344
 158    0.0010493493838792
 159    0.0015450081906513
 160    0.0018932859056967
 161    0.0022698323810038
 162    0.00012640885471126
 163    -9.2905279751376e-05
 164    1.4673761261656e-05
 165    -6.9668878859524e-05
 166    -3.3267348824511e-05
 167    -0.00021990420335655
 168    0.0014600460610655
 169     -0.00207370350514
 170    -0.0037926493272532
 171    -0.0024289100993231
 172    -0.00068451907139794
 173    0.00070875213987754
 174    -0.0043660774400322
 175    -0.0011508221317624
 176    0.0012762147975953
 177    -0.0062170198267747
 178    -0.0037090734209096
 179    0.0012587167033393
 180    -0.00010549919981921
 181    -0.00018525862777132
 182    -0.00015504474677215
 183    0.00042188265388167
 184    0.00017681444103608
 Sym= A
 Ene=               2
 Spin= Alpha
 Occup=    1.00000
   1    -0.0022556380501889
   2    0.0069617911839234
   3    -0.028932054681376
   4    0.0077601926969897
   5     0.010816241580716
   6    -0.026432159971348
   7    -0.002410158390101
   8    -0.0085252800582215
   9     0.082316669402062
  10    0.0075311592279595
  11      0.02656204275343
  12    -0.069466543322684
  13    -0.010328529398466
  14    -0.011612439822802
  15      0.33372684973675
  16     -0.29123134031197
  17     -0.18856767779924
  18     -0.70695280670702
  19      0.10472513143096
  20     0.088324859808231
  21    -0.081561762090805
  22    -0.048619665477436
  23     -0.18798494084284
  24     0.025918480117223
  25    0.0017128957071396
  26    0.0015067176546118
  27    0.0003373148973624
  28    -0.0028894014281339
  29    -4.8972790341458e-05
  30    -0.0030857619001807
  31    0.00043402862614849
  32     0.028786713851849
  33     0.056831913234925
  34     0.088252152883286
  35      0.14039759500906
  36     0.012134641885582
  37      0.06455371902466
  38      0.15848357677417
  39     0.011878009190572
  40     0.073141104205964
  41    0.0025060244516131
  42    0.00037366185777227
  43    0.00013322211960472
  44    -0.0025005443037655
  45    -0.00021492894424058
  46    0.0020353739610911
  47    -0.0058912574179257
  48     0.027975189524849
  49     -0.02353331816494
  50    -0.017241814311895
  51    -0.0064733036317434
  52    0.00023017509378787
  53     0.004763705020596
  54     0.021216146472992
  55    -0.00073449213861574
  56    -0.015182047634088
  57    -0.018525586476987
  58    0.0015869019638725
  59     0.013028815791276
  60    0.0032064146871729
  61    0.0099394562005875
  62    -2.3645647813646e-07
  63    -0.0097132654241103
  64    0.00021656732707161
  65    0.00010887752969899
  66    0.0052782848793995
  67    -0.00063289719861463
  68    -0.0029545526536401
  69    0.00052265295126032
  70    -0.00067005180015565
  71    -0.0004304459012849
  72    6.3341134162096e-05
  73    0.0011126007279759
  74    -2.1308289452916e-05
  75    -0.00039967839516558
  76    0.0001489306182336
  77    -0.0029488497004236
  78     0.019343036521689
  79    -0.024673309821422
  80    -0.025158670925752
  81      0.02315548328776
  82    -0.0076357059536731
  83     0.027720650453637
  84     0.039398491078939
  85    -0.013079845620152
  86      0.04766881582902
  87     0.067525872342429
  88    -0.024730154550792
  89      0.08293338286499
  90    0.0005449060544914
  91    0.0027993975888965
  92    0.0012726955234746
  93    0.00041214730909476
  94    -0.001532290586725
  95    -0.00022412022982083
  96    0.0014958961889546
  97    -0.003052697647634
  98    0.0040524139052401
  99     0.021077396336821
 100    0.0026660901870331
 101     0.012290300320347
 102     0.035732743893281
 103    0.0041624120877924
 104     0.020396411917218
 105     0.059237793934901
 106     0.010947456052066
 107     0.038886936301944
 108    -0.0018407480332687
 109    -0.0013377597919214
 110    -0.0010134215053778
 111    0.0015380178028918
 112    -0.0011399423061795
 113    -0.0031650715959766
 114     0.020736329618609
 115    -0.027947071010121
 116    -0.019608663592707
 117     0.025336511783267
 118     0.027450555296149
 119    0.0017744859332136
 120     0.042868410053176
 121     0.047192187677836
 122    0.0030621080093982
 123     0.074076459031155
 124     0.077851245957341
 125    0.0040215982630151
 126    -0.00045260601852888
 127    -7.3405191404695e-05
 128    0.0021425055782799
 129    0.0011339829689412
 130    0.0018523781283612
 131    3.7963353054197e-05
 132    -0.00015396158613977
 133    -0.0019153553267024
 134    0.0062131115664995
 135    -0.0021697444442498
 136    -0.00059838544228397
 137    -0.00058702782518523
 138    -0.0037819059988636
 139    -0.00095943372779201
 140    -0.0007528705665099
 141    -0.0045496277626602
 142    -0.0014981989307643
 143    -0.0025304092789226
 144    -0.00026576933654184
 145    0.00014195546490411
 146    -4.7838424936988e-05
 147    0.00015820986375229
 148    0.00010357976784248
 149    0.00054599306205565
 150    -0.0035971474218579
 151    0.0050335889429461
 152    0.0080177929365839
 153    0.0043290695113337
 154    -0.0011180576106054
 155    0.00030368062398915
 156    0.0079107440335289
 157    -0.0020876024509848
 158    0.00066284909181807
 159     0.011702378505823
 160    -0.0032533330831834
 161    0.00096652649199774
 162    0.00062695214468398
 163    -0.00040725329688637
 164    6.0228908310422e-05
 165    -0.0010299519049587
 166    0.00067529648197783
 167    0.0004681315004945
 168    -0.0030470145607431
 169    0.0033131468339987
 170    0.0093832252267058
 171    0.0024482970523989
 172    0.0024929759923063
 173    -0.00081732268158944
 174    0.0043362497094319
 175     0.004350489877814
 176    -0.0014995236770994
 177    0.0076107695338293
 178    0.0083536709719525
 179    -0.0018292607544772
 180    0.00053228501010985
 181    0.00024971900738342
 182    0.0002565592371279
 183    -0.00026666092082061
 184    -0.0011817763255353
 Sym= A
 Ene=               3
 Spin= Alpha
 Occup=    1.00000
   1    -0.00029031269739207
   2    0.00085355265595086
   3    -0.0039138565536453
   4    0.0052663627054082
   5    0.00083059294342833
   6    0.00058734261215084
   7    -0.0052818390419709
   8    0.0021021603393672
   9    -0.0018592283854066
  10     0.016691952639613
  11    -0.006731461082066
  12    0.0022842164217686
  13    -0.0093720033213232
  14    -0.0015967930077117
  15     -0.47837820234273
  16     -0.25964546536899
  17      0.16116453220476
  18    -0.064260420176976
  19      0.66163861196155
  20     -0.12540692804509
  21    -0.067158717479877
  22     0.041587310899505
  23    -0.016697102078305
  24      0.17097458776186
  25    -0.00031646144281972
  26    -0.0013626226878689
  27    -0.00041091180657639
  28    -0.0011473430044634
  29    0.0017508936728209
  30    0.0004110401812305
  31    0.0023913747989937
  32    0.0020766634032232
  33    0.0058197019464183
  34    0.0023430771962905
  35     0.010737531686752
  36      0.10289274569517
  37     -0.05763070658139
  38     0.011762245708598
  39      0.10066990203919
  40    -0.056359904114405
  41    -0.00069323279052726
  42    0.0015587391771869
  43    0.0013049546120629
  44    -0.00070870245278991
  45    -0.0022728525179603
  46    0.00060953978876767
  47    -0.0018161698003305
  48    0.0081355755544056
  49    -0.0089327785516097
  50    0.0051427152711545
  51    -0.0028789042315806
  52     0.003237558042052
  53    -0.0010874189967187
  54    0.0092031640748466
  55    -0.010311990419807
  56    0.0034767115519619
  57    -0.0086913702444567
  58     0.020190448027233
  59    -0.010814457124707
  60    0.0011220572179814
  61    -0.00058341123321301
  62    -0.00046023692873039
  63    -0.0020922185677907
  64    0.0029401236405141
  65    0.0016441750582694
  66    -0.0028510231396578
  67     -0.00177723867335
  68    -0.0014915043980422
  69    0.0066171468781239
  70    5.9754653584964e-05
  71    0.0004812565138887
  72    -0.00011072123368349
  73    -5.3928228524983e-05
  74    -0.0004754040717577
  75    -0.00034288083234553
  76    0.00088734617409352
  77    0.0028812691159945
  78    -0.018862446178298
  79     0.022978531857436
  80     0.025900291097418
  81     0.010649649741804
  82     0.023744804923873
  83    -0.022702195590937
  84     0.017787986761154
  85     0.040379200309687
  86    -0.038815461894706
  87     0.029992994368156
  88     0.071091176019232
  89    -0.070814221854636
  90    0.0011749428667087
  91      0.00185805646503
  92    1.9829006491967e-06
  93    0.00018294875609315
  94    -0.00019340900294873
  95     0.001005620119474
  96    -0.0066299691961133
  97    0.0095848900887716
  98    0.0042406164426251
  99    -0.0078318464244593
 100    0.0074593645533707
 101    0.0029362341328369
 102    -0.013431478312784
 103     0.013048123725177
 104    0.0049954380367855
 105    -0.022159304419089
 106     0.020196069119276
 107    0.0092906955802934
 108    0.0007379495994581
 109    -0.00061104330340234
 110    0.00015741652367118
 111    0.0003830561655951
 112    0.0010386799434267
 113    -0.0033921259861579
 114      0.02211582890261
 115    -0.027085851653732
 116    -0.029572352597317
 117    -0.0039476311746412
 118     0.036573169063712
 119    -0.018928801777862
 120    -0.006290160002072
 121     0.061793035935069
 122     -0.03161205558348
 123    -0.0098773391890936
 124      0.11025561157737
 125    -0.055960347965211
 126    0.00056248563421653
 127     0.000241524672333
 128    0.00043101836728654
 129    0.00068917005154867
 130    -0.0023882467338681
 131    7.8791102976248e-05
 132    -0.00054064154216232
 133    0.0012561631520866
 134    -0.00057107267416463
 135    0.00018210231431961
 136    -0.0014823186353012
 137    0.00010191813935009
 138    0.00028400150503108
 139    -0.0023806025072805
 140    5.3389692736609e-05
 141    0.0010968219248472
 142    -0.0056431208016277
 143    0.0010479118029719
 144    7.8561902929897e-05
 145    8.772277593597e-05
 146    -0.00013874646216389
 147    1.3195274940911e-05
 148    0.00024884505340953
 149    -0.00024286499477796
 150    0.0015990438351056
 151    -0.001637294832644
 152    -0.0073979198895648
 153    -0.0029977746480483
 154    -0.00060154735070858
 155    0.00056537484618893
 156    -0.0052719458963529
 157    -0.0010115548239976
 158    0.0011822170885746
 159    -0.0094927885902773
 160    -0.00061490880265578
 161    -0.0019920928519442
 162    -0.00024718893937133
 163    -0.0001844489468706
 164    0.00010345588657931
 165    0.0002918307144944
 166    0.00011001411505545
 167    0.00044528452416142
 168    -0.002987171483543
 169    0.0051674660140951
 170    0.0038072769469324
 171    0.0040417699521725
 172    0.0015727259649018
 173    0.00070106219591897
 174    0.0072053325646073
 175    0.0027503646584049
 176    0.00099063068854121
 177     0.011140905128907
 178    0.0063282709013813
 179    0.0040158290280179
 180    0.00036895108622125
 181    -4.2279710237432e-05
 182    0.00016007655168281