[Molden Format]
made by pyscf v[2.1.1]
[Atoms] (AU)
Fe   1   26     3.17068844873907     0.00098706064664     0.12237737881307
O   2   8     0.00000000000000     0.00000000000000    -0.89004350580623
Fe   3   26    -3.17068844873907    -0.00098706064664     0.12237737881307
Cl   4   17     3.53383895113107    -2.07485195383062     3.76228752659000
Cl   5   17     5.54152580550813    -1.85590924879884    -2.78672786652360
Cl   6   17     4.48169216485503     3.92976278472880    -0.95330240907949
Cl   7   17    -3.53383895113107     2.07485195383062     3.76228752659000
Cl   8   17    -5.54152580550813     1.85590924879884    -2.78672786652360
Cl   9   17    -4.48169216485503    -3.92976278472880    -0.95330240907949
[GTO]
1 0
 s    6 1.00
          60923.640643  0.0017552243692958
          9147.8893982   0.013449023284001
          2081.3505927   0.066678874640978
          587.55977067    0.23176348548844
           191.0904399    0.46945550248188
          65.732730112     0.3596824938678
 s    3 1.00
          127.25891928   -0.10723431835929
           14.83091301    0.62971616328466
          6.0653307408    0.44472317896179
 s    3 1.00
           10.44994371   -0.21694289195548
          1.7245228003    0.69457867408393
         0.71772177325    0.43298308896347
 s    1 1.00
        0.091449828308                   1
 s    1 1.00
        0.033706691021                   1
 p    5 1.00
          773.43750995  0.0091440529992506
          182.15149714   0.067887577136571
          57.547272758    0.26167978878504
          20.614988935    0.51088040113251
           7.634855789    0.33235475570224
 p    3 1.00
           3.871932799    0.33193859098144
          1.4924724132     0.5553666555499
         0.56061284958    0.23106034201617
 p    1 1.00
              0.134915                   1
 d    4 1.00
          38.968133419   0.033335938558743
          10.800067078    0.17766212505983
          3.6136457999      0.441281781625
          1.2129967888    0.57089200490673
 d    1 1.00
          0.3652439317                   1
 f    1 1.00
                 1.598                   1

2 0
 s    5 1.00
          2266.1767785  -0.0053893503921743
          340.87010191   -0.04023472138896
          77.363135167   -0.18008184205526
           21.47964494   -0.46828857657651
          6.6589433124   -0.44692617160187
 s    1 1.00
         0.80975975668                   1
 s    1 1.00
         0.25530772234                   1
 p    3 1.00
          17.721504317   0.062630248763161
           3.863550544    0.33331138482352
          1.0480920883    0.74148638308122
 p    1 1.00
         0.27641544411                   1
 d    1 1.00
                   1.2                   1

3 0
 s    6 1.00
          60923.640643  0.0017552243692958
          9147.8893982   0.013449023284001
          2081.3505927   0.066678874640978
          587.55977067    0.23176348548844
           191.0904399    0.46945550248188
          65.732730112     0.3596824938678
 s    3 1.00
          127.25891928   -0.10723431835929
           14.83091301    0.62971616328466
          6.0653307408    0.44472317896179
 s    3 1.00
           10.44994371   -0.21694289195548
          1.7245228003    0.69457867408393
         0.71772177325    0.43298308896347
 s    1 1.00
        0.091449828308                   1
 s    1 1.00
        0.033706691021                   1
 p    5 1.00
          773.43750995  0.0091440529992506
          182.15149714   0.067887577136571
          57.547272758    0.26167978878504
          20.614988935    0.51088040113251
           7.634855789    0.33235475570224
 p    3 1.00
           3.871932799    0.33193859098144
          1.4924724132     0.5553666555499
         0.56061284958    0.23106034201617
 p    1 1.00
              0.134915                   1
 d    4 1.00
          38.968133419   0.033335938558743
          10.800067078    0.17766212505983
          3.6136457999      0.441281781625
          1.2129967888    0.57089200490673
 d    1 1.00
          0.3652439317                   1
 f    1 1.00
                 1.598                   1

4 0
 s    5 1.00
          10449.827566  0.0054265953789407
          1571.7365221   0.040626378128836
          357.12065523    0.18359747852877
          100.25185935    0.47438948768198
          30.812727554    0.43735181104122
 s    3 1.00
          51.923789434  -0.092754154848099
          5.7045760975    0.56380825544207
          2.3508376809    0.50367044629712
 s    1 1.00
         0.44605124672                   1
 s    1 1.00
          0.1684885619                   1
 p    5 1.00
          307.66790569  -0.0088797025588865
          72.102015515  -0.064284071721237
          22.532680262   -0.24288739736006
          7.8991765444   -0.48340836369878
          2.8767268321   -0.38952563875509
 p    1 1.00
         0.77459363955                   1
 p    1 1.00
         0.21037699698                   1
 d    1 1.00
                  0.65                   1

5 0
 s    5 1.00
          10449.827566  0.0054265953789407
          1571.7365221   0.040626378128836
          357.12065523    0.18359747852877
          100.25185935    0.47438948768198
          30.812727554    0.43735181104122
 s    3 1.00
          51.923789434  -0.092754154848099
          5.7045760975    0.56380825544207
          2.3508376809    0.50367044629712
 s    1 1.00
         0.44605124672                   1
 s    1 1.00
          0.1684885619                   1
 p    5 1.00
          307.66790569  -0.0088797025588865
          72.102015515  -0.064284071721237
          22.532680262   -0.24288739736006
          7.8991765444   -0.48340836369878
          2.8767268321   -0.38952563875509
 p    1 1.00
         0.77459363955                   1
 p    1 1.00
         0.21037699698                   1
 d    1 1.00
                  0.65                   1

6 0
 s    5 1.00
          10449.827566  0.0054265953789407
          1571.7365221   0.040626378128836
          357.12065523    0.18359747852877
          100.25185935    0.47438948768198
          30.812727554    0.43735181104122
 s    3 1.00
          51.923789434  -0.092754154848099
          5.7045760975    0.56380825544207
          2.3508376809    0.50367044629712
 s    1 1.00
         0.44605124672                   1
 s    1 1.00
          0.1684885619                   1
 p    5 1.00
          307.66790569  -0.0088797025588865
          72.102015515  -0.064284071721237
          22.532680262   -0.24288739736006
          7.8991765444   -0.48340836369878
          2.8767268321   -0.38952563875509
 p    1 1.00
         0.77459363955                   1
 p    1 1.00
         0.21037699698                   1
 d    1 1.00
                  0.65                   1

7 0
 s    5 1.00
          10449.827566  0.0054265953789407
          1571.7365221   0.040626378128836
          357.12065523    0.18359747852877
          100.25185935    0.47438948768198
          30.812727554    0.43735181104122
 s    3 1.00
          51.923789434  -0.092754154848099
          5.7045760975    0.56380825544207
          2.3508376809    0.50367044629712
 s    1 1.00
         0.44605124672                   1
 s    1 1.00
          0.1684885619                   1
 p    5 1.00
          307.66790569  -0.0088797025588865
          72.102015515  -0.064284071721237
          22.532680262   -0.24288739736006
          7.8991765444   -0.48340836369878
          2.8767268321   -0.38952563875509
 p    1 1.00
         0.77459363955                   1
 p    1 1.00
         0.21037699698                   1
 d    1 1.00
                  0.65                   1

8 0
 s    5 1.00
          10449.827566  0.0054265953789407
          1571.7365221   0.040626378128836
          357.12065523    0.18359747852877
          100.25185935    0.47438948768198
          30.812727554    0.43735181104122
 s    3 1.00
          51.923789434  -0.092754154848099
          5.7045760975    0.56380825544207
          2.3508376809    0.50367044629712
 s    1 1.00
         0.44605124672                   1
 s    1 1.00
          0.1684885619                   1
 p    5 1.00
          307.66790569  -0.0088797025588865
          72.102015515  -0.064284071721237
          22.532680262   -0.24288739736006
          7.8991765444   -0.48340836369878
          2.8767268321   -0.38952563875509
 p    1 1.00
         0.77459363955                   1
 p    1 1.00
         0.21037699698                   1
 d    1 1.00
                  0.65                   1

9 0
 s    5 1.00
          10449.827566  0.0054265953789407
          1571.7365221   0.040626378128836
          357.12065523    0.18359747852877
          100.25185935    0.47438948768198
          30.812727554    0.43735181104122
 s    3 1.00
          51.923789434  -0.092754154848099
          5.7045760975    0.56380825544207
          2.3508376809    0.50367044629712
 s    1 1.00
         0.44605124672                   1
 s    1 1.00
          0.1684885619                   1
 p    5 1.00
          307.66790569  -0.0088797025588865
          72.102015515  -0.064284071721237
          22.532680262   -0.24288739736006
          7.8991765444   -0.48340836369878
          2.8767268321   -0.38952563875509
 p    1 1.00
         0.77459363955                   1
 p    1 1.00
         0.21037699698                   1
 d    1 1.00
                  0.65                   1

[5d]
[7f]
[9g]

[MO]
 Sym= A
 Ene=               0
 Spin= Alpha
 Occup=    1.00000
   1    -0.00029352907871594
   2    0.00088848193003298
   3    -0.0038522590385952
   4    0.0043667499037486
   5    -0.0014559445382731
   6    -0.0015156117406713
   7    1.2517737136951e-05
   8    0.00085295394738875
   9    0.0048001615180053
  10    -4.0725264075772e-05
  11    -0.0027192082440888
  12    -0.0038570765456295
  13    -3.5985915010869e-05
  14    0.0068420497986677
  15    -0.00083234496576675
  16    -0.0014689048588068
  17    0.00014755470939415
  18    0.00071826751795274
  19    -0.00014109639387403
  20    -0.0010594584226796
  21    -0.0021169367170835
  22    0.00021454679781622
  23    0.00028059453144946
  24    0.00024090963939093
  25    -7.3314099092856e-05
  26    0.00031800554073419
  27    3.2458029718284e-05
  28    0.00013576646696706
  29    -1.4451881873903e-05
  30    -0.0001953770970196
  31    -2.9335508592137e-05
  32    -1.0115029257438e-06
  33    -0.0010506129301311
  34    0.0024145806604501
  35    -0.00060894558304852
  36    -0.0024340226353617
  37      0.04105709039828
  38    -0.001018214628621
  39    -0.0022509626923954
  40     0.040292632877358
  41    0.00023880022682719
  42    0.00088855249774906
  43    -0.0004581564965207
  44    -0.00013043304466749
  45    -0.00019125308413693
  46    -0.0015216727781915
  47    0.0045366106297398
  48    -0.020199056082025
  49     0.035331717054182
  50    -0.013440332227666
  51    0.0023096660735162
  52    0.0010235594746755
  53    0.0058459216004336
  54    -0.0072183105412154
  55    -0.003302748396605
  56    -0.018203738122675
  57    0.0067019153766001
  58    0.0024798122267307
  59     0.025021580037136
  60     -0.20563328621271
  61     -0.39194393377346
  62     -0.58832972925707
  63      -0.4393526642008
  64     -0.18300569545821
  65     -0.05461905699086
  66     -0.10571599443221
  67     -0.15861804797646
  68     -0.11952143338041
  69     -0.04979205434959
  70    -0.00088511408695129
  71    -0.00087303198206297
  72    -0.0010873915892066
  73    -5.6321550687254e-05
  74    0.00058901234071247
  75    0.00092438353482653
  76    0.00019486000148563
  77    -0.00020706615606388
  78    0.0014015149187491
  79    -0.0027298513810975
  80    -0.00095146618022403
  81    0.0017589450981641
  82    -0.00054885685074392
  83    0.00078675535183285
  84    0.0032165148241616
  85    -0.00097079477912362
  86    0.0013864412615582
  87    0.0041141490839361
  88    -0.0021415530394641
  89    0.0029660794246958
  90    -0.0001147768821413
  91    0.00027377257195266
  92    -2.4393440900571e-05
  93    0.00018906223142762
  94    -0.00018942000136987
  95    6.2562139542064e-05
  96    -0.00041101451487552
  97    0.00033867186553265
  98     0.002352986225563
  99    -0.00073503614903797
 100    6.9636496184566e-05
 101    -0.00056469765846002
 102    -0.0012891378821393
 103    8.4428668428328e-05
 104    -0.00098219791535586
 105    -0.0024736608322428
 106    0.00093777093139799
 107    -0.0007813292395077
 108    3.5048333843954e-05
 109    -7.7558870796819e-05
 110    2.834724775788e-05
 111    -9.8079956967707e-05
 112    2.4768137363446e-05
 113    -5.6738817245023e-06
 114    4.9067968047761e-05
 115    -0.00042808631183929
 116    0.0013035901391912
 117    -1.1387590769474e-05
 118    2.7061233776329e-05
 119    -0.00068238354171467
 120    1.2313687395452e-05
 121    6.8073357188013e-05
 122    -0.0011598601554839
 123    -0.0001883779425617
 124    -0.00039493415888688
 125    -0.0020307322182165
 126    -1.5024024803201e-05
 127    -0.00013492814957332
 128    -4.6555806900137e-05
 129    -7.2916736009541e-06
 130    2.019444861049e-05
 131     0.001915862043601
 132    -0.012564746068234
 133     0.015876207267053
 134     0.010848117919786
 135     0.014779963324837
 136    -0.0090459683816167
 137    -0.016352816706412
 138     0.025108550850358
 139    -0.015624716064797
 140    -0.028300355192521
 141     0.041098743410785
 142    -0.025626785966796
 143    -0.046788536563663
 144    0.00029550253196199
 145    0.0015114704736586
 146    -0.00026731742924872
 147    -0.0010503309199721
 148    0.0010184595249506
 149    -0.00055089203962967
 150    0.0036356906393901
 151    -0.0063903498538206
 152    0.0017744128317649
 153    -0.015953607470887
 154    -0.023339826243952
 155    -0.010243740478853
 156    -0.027019893616257
 157    -0.039308257024276
 158    -0.017239426861871
 159    -0.043723003949431
 160    -0.066932522986515
 161    -0.028600429262326
 162    0.00043703490077384
 163    0.0013456641468383
 164    0.0017610206632365
 165    0.0021492316603253
 166    0.0013394066489313
 167    -0.00040141289390003
 168    0.0026259562001042
 169    -0.0044234172114905
 170    -0.00021436786531321
 171    -0.011862577944791
 172    0.0056780774345765
 173    -0.025422126427994
 174    -0.019891594198967
 175    0.0095916089225931
 176    -0.042645324598634
 177    -0.033600145345502
 178     0.016483828509664
 179    -0.072357607777914
 180    0.0011813225319236
 181     0.001338119042643
 182    0.0017270614630279
 183    0.0017619233834257
 184    0.00050593071642747
 Sym= A
 Ene=               1
 Spin= Alpha
 Occup=    1.00000
   1    0.00038575439073045
   2    -0.0011465863617407
   3    0.0051573415319036
   4    -0.0065831293280071
   5    0.0026841789620316
   6    0.0016933701505905
   7    0.0017126253061596
   8    -0.00053004012319736
   9    -0.0053887860665323
  10    -0.0054501397381388
  11    0.0016951821007867
  12    0.0040798464904035
  13      0.01089466597857
  14    -0.0060257052199153
  15    0.0010527730053982
  16    0.00050165729532278
  17    -0.00040766470083161
  18    -0.0007885002670526
  19    -0.0017086188400336
  20    0.0010551521693326
  21     0.001885567478658
  22    -0.00099883081131371
  23    -0.00034822112390972
  24    -0.0039298123703854
  25    3.4354831847186e-05
  26    -0.00029648639865532
  27    -0.00011540193968774
  28    -0.00011908225677541
  29    0.00027238199536992
  30    0.00022264873123704
  31    0.00052265015061626
  32     0.001269950511825
  33    0.0037671758192308
  34    0.00039166565471548
  35    -0.0046661440177812
  36     0.059421043914422
  37    -0.037354194958984
  38    -0.0050228266444415
  39     0.056850865489912
  40    -0.036625218941485
  41    -0.00069632325423345
  42    -0.001083834561345
  43    0.00091847594818231
  44    -0.0004430342634875
  45    0.0013276437384805
  46    0.00073480582808116
  47    -0.0021924866523439
  48     0.009739905159382
  49    -0.017838703288309
  50    0.0052390857842802
  51    -0.0010617158454068
  52    0.0080996767324112
  53    -0.003227319726446
  54    0.0032798517068843
  55    -0.025017802176699
  56    0.0098654969503661
  57    -0.0020786720861399
  58     0.032649086312303
  59    -0.015947932325485
  60     -0.61525715394339
  61     0.071494174899217
  62       0.4379565253349
  63     -0.20247075508791
  64     -0.38863385136245
  65     -0.16514280594852
  66     0.018644994020711
  67      0.11745479373783
  68    -0.053617939955033
  69      -0.1042161963999
  70    -0.00088970057633185
  71    0.0012166513913862
  72    0.00060463104086703
  73    -0.00064885692679533
  74    -0.0013405163319148
  75    0.00011619138254548
  76    0.0011665207742498
  77    0.00024234192014017
  78    -0.001603756216852
  79    0.0022112209451145
  80    0.0040777148371953
  81    -0.0022105591513046
  82    -1.0623395333088e-05
  83     -0.00166011642727
  84    -0.0038521190247592
  85    -7.4175192802717e-05
  86    -0.0028415031883787
  87    -0.0059995736520707
  88    0.0010608057474138
  89    -0.0065950424298086
  90    4.3853168464018e-05
  91    -0.00044035429734047
  92    -5.0368871839154e-05
  93    -0.00025151719377745
  94    6.151462054187e-05
  95    6.2848767704832e-05
  96    -0.00042554789589149
  97    0.00092712814232503
  98    -0.00036653530458754
  99    -0.00056547895452057
 100    -0.00037920842504578
 101    0.00065269995374486
 102    -0.0010114333450279
 103    -0.0005521295964547
 104    0.0010493493838756
 105    -0.001545008190675
 106    -0.0018932859056955
 107    0.0022698323810065
 108    0.00012640885471189
 109    9.2905279750978e-05
 110    -1.4673761261428e-05
 111    -6.9668878860408e-05
 112    -3.3267348824549e-05
 113    -0.00021990420335729
 114    0.0014600460610705
 115    -0.0020737035051496
 116    -0.0037926493272563
 117      0.00242891009933
 118    0.00068451907140045
 119    0.00070875213987496
 120    0.0043660774400446
 121    0.0011508221317668
 122    0.0012762147975912
 123    0.0062170198267934
 124    0.0037090734209191
 125    0.0012587167033282
 126    -0.00010549919981982
 127    0.00018525862777098
 128    0.00015504474677232
 129    0.00042188265388284
 130    0.00017681444103702
 131    0.00020532719049338
 132    -0.0013406450406852
 133    0.0019529011974591
 134     0.001610561097362
 135    0.0048201013934188
 136     -0.02685080097029
 137     0.012833833703715
 138    0.0081496044212692
 139    -0.045343951585754
 140     0.021738944287683
 141     0.013690731114493
 142    -0.076983251668947
 143     0.036256536049585
 144    0.0029481576996113
 145    0.00050536004716859
 146    -0.0014905003838533
 147    0.0014492884889182
 148    0.00038844472994693
 149    0.0011574687334549
 150    -0.0076459988148977
 151      0.01162822341473
 152    0.0015585604346593
 153     0.019309418466508
 154    -0.016617205400999
 155    -0.0097956301303131
 156     0.032883593894991
 157    -0.028106048734593
 158    -0.016293388738079
 159     0.052976549917181
 160    -0.047631283941179
 161    -0.028239487731861
 162    0.0026869141207809
 163    0.00035836203744942
 164    7.6321919001171e-05
 165    -0.00049909476086468
 166    0.0014606243391598
 167    -0.0018349178461767
 168     0.012011880577553
 169    -0.015810712563107
 170    -0.0084314838359841
 171    -0.016981035718096
 172    -0.016042073226731
 173    0.0030586633680235
 174    -0.028721594250567
 175    -0.027387820864065
 176    0.0051337140918255
 177    -0.047424789040342
 178     -0.04585656826249
 179    0.0089451582544787
 180    -0.00080359649995278
 181    0.00020846325786347
 182    -0.0012344496296945
 183    0.0010303961745074
 184    0.00084767219691312
 Sym= A
 Ene=               2
 Spin= Alpha
 Occup=    1.00000
   1    -0.0020353739610927
   2    0.0058912574179305
   3    -0.027975189524871
   4     0.023533318164963
   5     0.017241814311898
   6    -0.0064733036317498
   7    0.00023017509378607
   8    -0.0047637050205959
   9     0.021216146473013
  10    -0.00073449213860999
  11     0.015182047634088
  12    -0.018525586477006
  13    0.0015869019638598
  14    -0.013028815791263
  15    -0.0032064146871765
  16    0.0099394562005895
  17    -2.3645647772977e-07
  18    0.0097132654241163
  19    -0.00021656732707023
  20    -0.00010887752970148
  21    0.0052782848793971
  22    -0.00063289719861422
  23    0.0029545526536425
  24    -0.00052265295125687
  25    0.00067005180015581
  26    -0.00043044590128435
  27    6.3341134162248e-05
  28    -0.001112600727976
  29    2.1308289452644e-05
  30    -0.00039967839516622
  31    0.00014893061823313
  32    -0.028786713851861
  33    -0.056831913234951
  34    -0.088252152883315
  35      0.14039759500912
  36     0.012134641885524
  37    -0.064553719024591
  38      0.15848357677424
  39     0.011878009190514
  40    -0.073141104205898
  41    -0.0025060244516133
  42    0.00037366185777451
  43    0.00013322211960427
  44    0.0025005443037669
  45    0.00021492894423944
  46    0.0022556380501896
  47    -0.0069617911839255
  48     0.028932054681385
  49    -0.0077601926969943
  50    -0.010816241580728
  51     -0.02643215997136
  52    -0.0024101583900918
  53    0.0085252800582153
  54     0.082316669402099
  55    0.0075311592279308
  56     -0.02656204275341
  57    -0.069466543322718
  58    -0.010328529398435
  59      0.01161243982278
  60     -0.33372684973699
  61      -0.2912313403127
  62     -0.18856767779883
  63      0.70695280670678
  64      -0.1047251314305
  65    -0.088324859808298
  66    -0.081561762090995
  67    -0.048619665477328
  68      0.18798494084278
  69    -0.025918480117108
  70    -0.0017128957071414
  71      0.00150671765461
  72    0.00033731489736345
  73    0.0028894014281353
  74    4.8972790342787e-05
  75    -0.0030857619001807
  76    0.00043402862614724
  77    -3.7963353054578e-05
  78    0.00015396158614228
  79    0.0019153553266999
  80    -0.0062131115665102
  81    -0.002169744444249
  82    -0.00059838544228467
  83    0.00058702782518724
  84    -0.0037819059988619
  85    -0.00095943372779308
  86    0.0007528705665131
  87    -0.0045496277626572
  88    -0.0014981989307688
  89    0.0025304092789334
  90    0.00026576933654194
  91    0.00014195546490496
  92    -4.7838424936994e-05
  93    -0.00015820986375203
  94    -0.00010357976784285
  95    -0.00054599306205584
  96    0.0035971474218591
  97    -0.0050335889429484
  98    -0.0080177929365834
  99    0.0043290695113348
 100    -0.0011180576106054
 101    -0.00030368062399061
 102    0.0079107440335309
 103    -0.0020876024509851
 104    -0.00066284909182062
 105     0.011702378505825
 106    -0.0032533330831806
 107    -0.00096652649200084
 108    -0.00062695214468427
 109    -0.00040725329688681
 110    6.0228908310559e-05
 111    0.0010299519049591
 112    -0.00067529648197806
 113    -0.00046813150049446
 114    0.0030470145607428
 115    -0.0033131468339983
 116    -0.0093832252267038
 117    0.0024482970523974
 118    0.0024929759923066
 119    0.00081732268158817
 120    0.0043362497094291
 121    0.0043504898778148
 122    0.0014995236770972
 123    0.0076107695338261
 124    0.0083536709719504
 125    0.0018292607544739
 126    -0.00053228501011001
 127    0.00024971900738317
 128    0.00025655923712775
 129    0.0002666609208202
 130    0.0011817763255356
 131     0.002948849700422
 132    -0.019343036521678
 133     0.024673309821406
 134     0.025158670925743
 135     0.023155483287774
 136    -0.0076357059536805
 137    -0.027720650453612
 138     0.039398491078963
 139    -0.013079845620165
 140    -0.047668815828976
 141      0.06752587234247
 142    -0.024730154550812
 143    -0.082933382864917
 144    -0.00054490605448939
 145    0.0027993975888978
 146    0.0012726955234733
 147    -0.00041214730909384
 148     0.001532290586727
 149    0.0002241202298274
 150    -0.0014958961889978
 151    0.0030526976476912
 152    -0.0040524139051957
 153     0.021077396336858
 154    0.0026660901869951
 155    -0.012290300320302
 156     0.035732743893343
 157    0.0041624120877273
 158    -0.020396411917141
 159     0.059237793935007
 160     0.010947456051956
 161    -0.038886936301812
 162    0.0018407480332705
 163    -0.0013377597919194
 164    -0.0010134215053786
 165    -0.0015380178028905
 166    0.0011399423061794
 167    0.0031650715959731
 168    -0.020736329618586
 169      0.02794707101009
 170     0.019608663592686
 171     0.025336511783263
 172     0.027450555296113
 173    -0.0017744859332192
 174     0.042868410053168
 175     0.047192187677774
 176    -0.0030621080094075
 177     0.074076459031142
 178     0.077851245957233
 179    -0.0040215982630321
 180    0.00045260601852871
 181    -7.3405191405643e-05
 182    0.0021425055782781
 183    -0.0011339829689411
 184    -0.0018523781283624
 Sym= A
 Ene=               3
 Spin= Alpha
 Occup=    1.00000
   1    -0.0006095397887619
   2    0.0018161698003135
   3    -0.0081355755543274
   4    0.0089327785515296
   5    -0.0051427152711613
   6    -0.0028789042315577
   7    0.0032375580420542
   8    0.0010874189967176
   9    0.0092031640747727
  10    -0.010311990419814
  11    -0.0034767115519583
  12    -0.0086913702443842
  13     0.020190448027252
  14     0.010814457124654
  15    -0.0011220572179705
  16    -0.00058341123322015
  17    -0.00046023692873128
  18    0.0020922185677702
  19    -0.0029401236405165
  20    -0.0016441750582606
  21    -0.0028510231396482
  22    -0.0017772386733491
  23    0.0014915043980333
  24    -0.0066171468781274
  25    -5.9754653585447e-05
  26    0.00048125651388653
  27    -0.00011072123368382
  28    5.3928228525532e-05
  29    0.00047540407175801
  30    -0.0003428808323432
  31    0.00088734617409397
  32    -0.0020766634031839
  33    -0.0058197019463315
  34    -0.0023430771961942
  35     0.010737531686558
  36      0.10289274569524
  37     0.057630706581122
  38     0.011762245708376
  39      0.10066990203926
  40     0.056359904114148
  41    0.00069323279052771
  42    0.0015587391771787
  43    0.0013049546120623
  44    0.00070870245278506
  45    0.0022728525179612
  46    0.00029031269738808
  47    -0.00085355265593882
  48     0.003913856553593
  49    -0.0052663627053495
  50    -0.00083059294339745
  51    0.00058734261219161
  52    -0.0052818390420103
  53    -0.0021021603393329
  54    -0.0018592283855334
  55     0.016691952639736
  56    0.0067314610819581
  57    0.0022842164218863
  58    -0.0093720033214705
  59     0.001596793007828
  60       0.4783782023437
  61     -0.25964546536633
  62      0.16116453220221
  63     0.064260420177989
  64      -0.6616386119624
  65      0.12540692804536
  66    -0.067158717479185
  67     0.041587310898832
  68     0.016697102078559
  69     -0.17097458776207
  70    0.00031646144282654
  71    -0.0013626226878621
  72    -0.00041091180658119
  73    0.0011473430044581
  74    -0.0017508936728226
  75    0.00041104018123012
  76    0.0023913747989953
  77    -7.8791102975094e-05
  78    0.0005406415421547
  79    -0.0012561631520791
  80    0.00057107267419898
  81    0.00018210231431906
  82    -0.0014823186352976
  83    -0.0001019181393554
  84    0.00028400150502944
  85    -0.0023806025072748
  86    -5.3389692744836e-05
  87    0.0010968219248423
  88    -0.0056431208016075
  89    -0.0010479118030032
  90    -7.8561902930237e-05
  91    8.7722775933275e-05
  92    -0.00013874646216372
  93    -1.3195274941537e-05
  94    -0.00024884505340807
  95    0.0002428649947783
  96    -0.0015990438351078
  97    0.0016372948326494
  98     0.007397919889556
  99    -0.0029977746480486
 100    -0.00060154735070807
 101    -0.00056537484618403
 102    -0.0052719458963539
 103    -0.0010115548239957
 104    -0.0011822170885657
 105    -0.009492788590275
 106    -0.00061490880266388
 107    0.0019920928519509
 108    0.00024718893937198
 109    -0.00018444894686898
 110    0.00010345588657873
 111    -0.00029183071449518
 112    -0.00011001411505458
 113    -0.00044528452416104
 114    0.0029871714835405
 115    -0.0051674660140909
 116    -0.003807276946934
 117    0.0040417699521726
 118     0.001572725964899
 119    -0.00070106219591442
 120    0.0072053325646078
 121    0.0027503646583993
 122    -0.0009906306885337
 123     0.011140905128904
 124    0.0063282709013813
 125    -0.004015829028004
 126    -0.00036895108622035
 127    -4.2279710236645e-05
 128    0.0001600765516831
 129    0.00067193325474245
 130    0.00060882173718907
 131    -0.002881269115984
 132     0.018862446178229
 133    -0.022978531857343
 134    -0.025900291097351
 135     0.010649649741749
 136     0.023744804923903
 137     0.022702195590791
 138     0.017787986761061
 139     0.040379200309737
 140     0.038815461894455
 141     0.029992994367997
 142     0.071091176019309
 143     0.070814221854211
 144    -0.0011749428667186
 145    0.0018580564650245
 146    1.9829006560755e-06
 147    -0.00018294875609876
 148    0.00019340900294149
 149    -0.0010056201194999
 150    0.0066299691962827
 151    -0.0095848900889974
 152    -0.0042406164427933
 153    -0.0078318464246161
 154    0.0074593645535156
 155    -0.0029362341330045
 156    -0.013431478313054
 157     0.013048123725425
 158    -0.0049954380370729
 159    -0.022159304419543
 160     0.020196069119698
 161    -0.0092906955807852
 162    -0.00073794959946646
 163    -0.00061104330340918
 164    0.00015741652367446
 165    -0.0003830561655983
 166    -0.0010386799434259
 167    0.0033921259861709
 168    -0.022115828902695
 169      0.02708585165385
 170     0.029572352597382
 171    -0.0039476311746014
 172     0.036573169063847
 173     0.018928801777849
 174    -0.0062901600020036
 175     0.061793035935299
 176     0.031612055583458
 177    -0.0098773391889852
 178      0.11025561157776
 179     0.055960347965176
 180    -0.00056248563421375
 181    0.00024152467233689
 182    0.00043101836729598