[Molden Format]
made by pyscf v[2.1.1]
[Atoms] (AU)
Fe   1   26     3.17068844873907     0.00098706064664     0.12237737881307
O   2   8     0.00000000000000     0.00000000000000    -0.89004350580623
Fe   3   26    -3.17068844873907    -0.00098706064664     0.12237737881307
Cl   4   17     3.53383895113107    -2.07485195383062     3.76228752659000
Cl   5   17     5.54152580550813    -1.85590924879884    -2.78672786652360
Cl   6   17     4.48169216485503     3.92976278472880    -0.95330240907949
Cl   7   17    -3.53383895113107     2.07485195383062     3.76228752659000
Cl   8   17    -5.54152580550813     1.85590924879884    -2.78672786652360
Cl   9   17    -4.48169216485503    -3.92976278472880    -0.95330240907949
[GTO]
1 0
 s    6 1.00
          60923.640643  0.0017552243692958
          9147.8893982   0.013449023284001
          2081.3505927   0.066678874640978
          587.55977067    0.23176348548844
           191.0904399    0.46945550248188
          65.732730112     0.3596824938678
 s    3 1.00
          127.25891928   -0.10723431835929
           14.83091301    0.62971616328466
          6.0653307408    0.44472317896179
 s    3 1.00
           10.44994371   -0.21694289195548
          1.7245228003    0.69457867408393
         0.71772177325    0.43298308896347
 s    1 1.00
        0.091449828308                   1
 s    1 1.00
        0.033706691021                   1
 p    5 1.00
          773.43750995  0.0091440529992506
          182.15149714   0.067887577136571
          57.547272758    0.26167978878504
          20.614988935    0.51088040113251
           7.634855789    0.33235475570224
 p    3 1.00
           3.871932799    0.33193859098144
          1.4924724132     0.5553666555499
         0.56061284958    0.23106034201617
 p    1 1.00
              0.134915                   1
 d    4 1.00
          38.968133419   0.033335938558743
          10.800067078    0.17766212505983
          3.6136457999      0.441281781625
          1.2129967888    0.57089200490673
 d    1 1.00
          0.3652439317                   1
 f    1 1.00
                 1.598                   1

2 0
 s    5 1.00
          2266.1767785  -0.0053893503921743
          340.87010191   -0.04023472138896
          77.363135167   -0.18008184205526
           21.47964494   -0.46828857657651
          6.6589433124   -0.44692617160187
 s    1 1.00
         0.80975975668                   1
 s    1 1.00
         0.25530772234                   1
 p    3 1.00
          17.721504317   0.062630248763161
           3.863550544    0.33331138482352
          1.0480920883    0.74148638308122
 p    1 1.00
         0.27641544411                   1
 d    1 1.00
                   1.2                   1

3 0
 s    6 1.00
          60923.640643  0.0017552243692958
          9147.8893982   0.013449023284001
          2081.3505927   0.066678874640978
          587.55977067    0.23176348548844
           191.0904399    0.46945550248188
          65.732730112     0.3596824938678
 s    3 1.00
          127.25891928   -0.10723431835929
           14.83091301    0.62971616328466
          6.0653307408    0.44472317896179
 s    3 1.00
           10.44994371   -0.21694289195548
          1.7245228003    0.69457867408393
         0.71772177325    0.43298308896347
 s    1 1.00
        0.091449828308                   1
 s    1 1.00
        0.033706691021                   1
 p    5 1.00
          773.43750995  0.0091440529992506
          182.15149714   0.067887577136571
          57.547272758    0.26167978878504
          20.614988935    0.51088040113251
           7.634855789    0.33235475570224
 p    3 1.00
           3.871932799    0.33193859098144
          1.4924724132     0.5553666555499
         0.56061284958    0.23106034201617
 p    1 1.00
              0.134915                   1
 d    4 1.00
          38.968133419   0.033335938558743
          10.800067078    0.17766212505983
          3.6136457999      0.441281781625
          1.2129967888    0.57089200490673
 d    1 1.00
          0.3652439317                   1
 f    1 1.00
                 1.598                   1

4 0
 s    5 1.00
          10449.827566  0.0054265953789407
          1571.7365221   0.040626378128836
          357.12065523    0.18359747852877
          100.25185935    0.47438948768198
          30.812727554    0.43735181104122
 s    3 1.00
          51.923789434  -0.092754154848099
          5.7045760975    0.56380825544207
          2.3508376809    0.50367044629712
 s    1 1.00
         0.44605124672                   1
 s    1 1.00
          0.1684885619                   1
 p    5 1.00
          307.66790569  -0.0088797025588865
          72.102015515  -0.064284071721237
          22.532680262   -0.24288739736006
          7.8991765444   -0.48340836369878
          2.8767268321   -0.38952563875509
 p    1 1.00
         0.77459363955                   1
 p    1 1.00
         0.21037699698                   1
 d    1 1.00
                  0.65                   1

5 0
 s    5 1.00
          10449.827566  0.0054265953789407
          1571.7365221   0.040626378128836
          357.12065523    0.18359747852877
          100.25185935    0.47438948768198
          30.812727554    0.43735181104122
 s    3 1.00
          51.923789434  -0.092754154848099
          5.7045760975    0.56380825544207
          2.3508376809    0.50367044629712
 s    1 1.00
         0.44605124672                   1
 s    1 1.00
          0.1684885619                   1
 p    5 1.00
          307.66790569  -0.0088797025588865
          72.102015515  -0.064284071721237
          22.532680262   -0.24288739736006
          7.8991765444   -0.48340836369878
          2.8767268321   -0.38952563875509
 p    1 1.00
         0.77459363955                   1
 p    1 1.00
         0.21037699698                   1
 d    1 1.00
                  0.65                   1

6 0
 s    5 1.00
          10449.827566  0.0054265953789407
          1571.7365221   0.040626378128836
          357.12065523    0.18359747852877
          100.25185935    0.47438948768198
          30.812727554    0.43735181104122
 s    3 1.00
          51.923789434  -0.092754154848099
          5.7045760975    0.56380825544207
          2.3508376809    0.50367044629712
 s    1 1.00
         0.44605124672                   1
 s    1 1.00
          0.1684885619                   1
 p    5 1.00
          307.66790569  -0.0088797025588865
          72.102015515  -0.064284071721237
          22.532680262   -0.24288739736006
          7.8991765444   -0.48340836369878
          2.8767268321   -0.38952563875509
 p    1 1.00
         0.77459363955                   1
 p    1 1.00
         0.21037699698                   1
 d    1 1.00
                  0.65                   1

7 0
 s    5 1.00
          10449.827566  0.0054265953789407
          1571.7365221   0.040626378128836
          357.12065523    0.18359747852877
          100.25185935    0.47438948768198
          30.812727554    0.43735181104122
 s    3 1.00
          51.923789434  -0.092754154848099
          5.7045760975    0.56380825544207
          2.3508376809    0.50367044629712
 s    1 1.00
         0.44605124672                   1
 s    1 1.00
          0.1684885619                   1
 p    5 1.00
          307.66790569  -0.0088797025588865
          72.102015515  -0.064284071721237
          22.532680262   -0.24288739736006
          7.8991765444   -0.48340836369878
          2.8767268321   -0.38952563875509
 p    1 1.00
         0.77459363955                   1
 p    1 1.00
         0.21037699698                   1
 d    1 1.00
                  0.65                   1

8 0
 s    5 1.00
          10449.827566  0.0054265953789407
          1571.7365221   0.040626378128836
          357.12065523    0.18359747852877
          100.25185935    0.47438948768198
          30.812727554    0.43735181104122
 s    3 1.00
          51.923789434  -0.092754154848099
          5.7045760975    0.56380825544207
          2.3508376809    0.50367044629712
 s    1 1.00
         0.44605124672                   1
 s    1 1.00
          0.1684885619                   1
 p    5 1.00
          307.66790569  -0.0088797025588865
          72.102015515  -0.064284071721237
          22.532680262   -0.24288739736006
          7.8991765444   -0.48340836369878
          2.8767268321   -0.38952563875509
 p    1 1.00
         0.77459363955                   1
 p    1 1.00
         0.21037699698                   1
 d    1 1.00
                  0.65                   1

9 0
 s    5 1.00
          10449.827566  0.0054265953789407
          1571.7365221   0.040626378128836
          357.12065523    0.18359747852877
          100.25185935    0.47438948768198
          30.812727554    0.43735181104122
 s    3 1.00
          51.923789434  -0.092754154848099
          5.7045760975    0.56380825544207
          2.3508376809    0.50367044629712
 s    1 1.00
         0.44605124672                   1
 s    1 1.00
          0.1684885619                   1
 p    5 1.00
          307.66790569  -0.0088797025588865
          72.102015515  -0.064284071721237
          22.532680262   -0.24288739736006
          7.8991765444   -0.48340836369878
          2.8767268321   -0.38952563875509
 p    1 1.00
         0.77459363955                   1
 p    1 1.00
         0.21037699698                   1
 d    1 1.00
                  0.65                   1

[5d]
[7f]
[9g]

[MO]
 Sym= A
 Ene=               0
 Spin= Alpha
 Occup=    1.00000
   1    0.0030569745292795
   2    -0.0091329422621883
   3     0.040958785837497
   4    -0.037789248054522
   5    0.0095392509284177
   6      0.01111500919901
   7    1.9080193986805e-05
   8    0.0041203478363103
   9    -0.036614069675877
  10    -3.2377095765637e-05
  11    -0.013706462162499
  12     0.026320600700385
  13    -0.0015575892809919
  14     0.023299360150949
  15     0.014744639035137
  16     -0.02726136824695
  17    -0.00093383956224521
  18    -0.035525648465264
  19    -0.00029912624996109
  20    0.0083397633616559
  21    -0.019329566651809
  22    -0.0020372965168969
  23    -0.021352890640831
  24    -0.00026875331635024
  25    -0.0015621195467901
  26    -0.0011401720071099
  27    -0.00012900968066856
  28     0.002253966421925
  29    4.0400005918829e-05
  30    0.0026846241266978
  31    -4.2964668080741e-05
  32      0.10511469342101
  33     -0.53764985422386
  34      -0.4158366421072
  35    1.6636072912191e-16
  36    1.9356085768852e-16
  37    0.0041231444017876
  38    1.3761488295635e-16
  39    1.6740083860359e-16
  40    -0.0069948081252089
  41    0.0060289355390122
  42    4.7204057768103e-18
  43    3.945824109808e-18
  44    -0.013074523675745
  45    0.00017400525238982
  46    0.0030569745292795
  47    -0.0091329422621885
  48     0.040958785837497
  49    -0.037789248054523
  50    0.0095392509284177
  51     -0.01111500919901
  52    -1.9080193986801e-05
  53    0.0041203478363104
  54     0.036614069675877
  55    3.2377095765625e-05
  56    -0.013706462162499
  57    -0.026320600700385
  58     0.001557589280992
  59     0.023299360150949
  60     0.014744639035137
  61      0.02726136824695
  62    0.0009338395622451
  63    -0.035525648465264
  64    -0.00029912624996104
  65    0.0083397633616559
  66     0.019329566651809
  67    0.0020372965168969
  68    -0.021352890640831
  69    -0.0002687533163502
  70    -0.0015621195467901
  71    0.0011401720071099
  72    0.00012900968066856
  73     0.002253966421925
  74    4.0400005918827e-05
  75    -0.0026846241266978
  76    4.2964668080744e-05
  77    0.00040065753129779
  78    -0.0026203521175158
  79    0.0057244263471365
  80    -0.0051457550756535
  81    -0.0028595175320196
  82    0.0015652023876725
  83    -0.003410657131276
  84    -0.0046475177817489
  85    0.0029834132844179
  86    -0.0060795810775732
  87    -0.008896534403268
  88    0.00099194849124352
  89    -0.0054829106296681
  90    -0.00024255462192007
  91    6.2025673427978e-05
  92    0.00050752990247243
  93    4.9559832268049e-05
  94    -0.00013159688561215
  95    0.00046332680336297
  96    -0.0029607601948668
  97    0.0036755038640204
  98     0.005803014938634
  99    -0.0047176184320927
 100    0.0010678534567605
 101    0.0012497143547312
 102     -0.00761329886191
 103    0.0015202704558801
 104    0.0020361610053998
 105    -0.016080939780553
 106    0.0046495933015323
 107    0.0035250467692253
 108    -0.00012414621001638
 109    -0.00036738912084538
 110    8.2052370967393e-05
 111    -0.00017763114797167
 112    -0.00025219503452011
 113    0.00054581537148236
 114    -0.0035128018038595
 115     0.004941655205083
 116    0.0046803331263592
 117    -0.0044984905940126
 118    -0.0033967017175658
 119    0.00022901223679455
 120    -0.0073900673045036
 121    -0.0055396396524483
 122    0.00061227870226122
 123    -0.014383781134177
 124     -0.01077222713483
 125    -0.0010522983753282
 126    1.4284910974397e-05
 127    -0.00022708167816503
 128    0.00013639235220109
 129    -0.00038514632226475
 130    0.00010208879394267
 131    0.00040065753129778
 132    -0.0026203521175158
 133    0.0057244263471365
 134    -0.0051457550756535
 135    0.0028595175320195
 136    -0.0015652023876725
 137    -0.003410657131276
 138    0.0046475177817489
 139    -0.0029834132844179
 140    -0.0060795810775732
 141     0.008896534403268
 142    -0.00099194849124348
 143    -0.0054829106296681
 144    -0.00024255462192007
 145    -6.2025673427979e-05
 146    -0.00050752990247243
 147    4.955983226805e-05
 148    -0.00013159688561215
 149    0.00046332680336296
 150    -0.0029607601948668
 151    0.0036755038640204
 152     0.005803014938634
 153    0.0047176184320926
 154    -0.0010678534567605
 155    0.0012497143547312
 156      0.00761329886191
 157     -0.00152027045588
 158    0.0020361610053998
 159     0.016080939780553
 160    -0.0046495933015322
 161    0.0035250467692253
 162    -0.00012414621001638
 163    0.00036738912084538
 164    -8.205237096739e-05
 165    -0.00017763114797167
 166    -0.00025219503452011
 167    0.00054581537148236
 168    -0.0035128018038595
 169     0.004941655205083
 170    0.0046803331263592
 171    0.0044984905940126
 172    0.0033967017175658
 173    0.00022901223679455
 174    0.0073900673045036
 175    0.0055396396524483
 176    0.00061227870226122
 177     0.014383781134177
 178      0.01077222713483
 179    -0.0010522983753282
 180    1.4284910974398e-05
 181    0.00022708167816503
 182    -0.00013639235220108
 183    -0.00038514632226476
 184    0.00010208879394267
 Sym= A
 Ene=               1
 Spin= Alpha
 Occup=    1.00000
   1    -0.0028196772680086
   2    0.0080142899896425
   3    -0.039619602692461
   4     0.055432129668795
   5    -0.032431804214574
   6    -0.011753329589686
   7    0.00050117756811828
   8    0.0097053295734098
   9     0.039417006381012
  10    -0.0015194398091624
  11    -0.031161711618811
  12    -0.053873507396635
  13    -0.0016929839191772
  14     0.084267214819301
  15    -0.075463531090427
  16    -0.062077946915024
  17     0.012334087804529
  18     0.076273203799121
  19    -0.0037681213489135
  20    -0.042016819399788
  21    -0.046234693679262
  22    0.0041836037801882
  23     0.040090520050516
  24    -0.0019618684756602
  25    -0.00093575422865921
  26    0.0036775869235791
  27    0.00023041881335558
  28    0.0016329728878393
  29    6.2358730051795e-05
  30    -0.0024242987578941
  31    -2.5960739725341e-05
  32    -0.0065353966252015
  33    -0.039955694292652
  34    -0.029409905005282
  35    4.0768840598773e-15
  36    -1.3470211094103e-14
  37      0.54957079334761
  38    3.4172750593652e-15
  39    -1.1604675788641e-14
  40      0.47293866407821
  41     0.012308015366844
  42    1.0766843698672e-16
  43    -2.7519344792075e-16
  44    0.00099496175180945
  45    0.00012311566456507
  46    -0.0028196772680085
  47    0.0080142899896422
  48    -0.039619602692459
  49     0.055432129668793
  50    -0.032431804214574
  51     0.011753329589686
  52    -0.00050117756811891
  53    0.0097053295734099
  54    -0.039417006381011
  55    0.0015194398091645
  56    -0.031161711618812
  57     0.053873507396634
  58    0.0016929839191727
  59     0.084267214819301
  60    -0.075463531090425
  61     0.062077946915025
  62    -0.012334087804527
  63      0.07627320379912
  64    -0.0037681213489191
  65    -0.042016819399787
  66     0.046234693679263
  67    -0.0041836037801873
  68     0.040090520050515
  69    -0.0019618684756637
  70    -0.00093575422865926
  71    -0.003677586923579
  72    -0.00023041881335554
  73    0.0016329728878394
  74    6.2358730051895e-05
  75     0.002424298757894
  76    2.5960739725141e-05
  77    -0.0017277375846246
  78     0.011466857521495
  79    -0.019586065081891
  80    -0.018160960994883
  81    0.0098854090274112
  82    -0.0067887739365806
  83    0.0089946252148386
  84     0.018041746953668
  85     -0.01093119639743
  86     0.015579709337292
  87     0.026974073820519
  88    -0.027758869720797
  89     0.032348995929856
  90    -0.001400954703341
  91    0.0026496335841101
  92    0.0011846980847357
  93    0.0023652345276631
  94    -0.001566373387374
  95    0.00071921821923698
  96    -0.0045661023367325
  97    0.0019923318876015
  98      0.03133226386749
  99    -0.0052707305380584
 100    0.0020608458398559
 101    -0.00065344716621037
 102    -0.0095537135870684
 103    0.0027055551315751
 104    -0.0017658092169589
 105    -0.019601416912108
 106      0.01507463068038
 107    0.0061688063228974
 108     0.001905442499981
 109    -0.0011701523506131
 110    0.0019354702759655
 111    -0.0020255392366564
 112    0.00022193866938976
 113    -6.9146517780764e-06
 114    0.00014799492741672
 115    -0.0046269140401258
 116      0.01691928048195
 117    0.00081608189355097
 118    0.00064719738878825
 119    -0.0049376276154316
 120    0.00089641919475677
 121    0.0019321862709334
 122    -0.0082086468245803
 123    0.0034256325256384
 124    -0.0077118187058418
 125    -0.016243370315495
 126    -0.00057354762698791
 127    -0.0011940796376113
 128    -0.00078146436898607
 129    -0.0009464912749937
 130    -0.00068323844778222
 131    -0.0017277375846246
 132     0.011466857521495
 133    -0.019586065081891
 134    -0.018160960994882
 135    -0.0098854090274109
 136    0.0067887739365806
 137    0.0089946252148382
 138    -0.018041746953668
 139      0.01093119639743
 140     0.015579709337292
 141    -0.026974073820518
 142     0.027758869720797
 143     0.032348995929854
 144    -0.0014009547033409
 145     -0.00264963358411
 146    -0.0011846980847356
 147     0.002365234527663
 148    -0.001566373387374
 149    0.00071921821923703
 150    -0.0045661023367328
 151    0.0019923318876021
 152     0.031332263867491
 153    0.0052707305380588
 154    -0.0020608458398559
 155    -0.00065344716621019
 156    0.0095537135870692
 157    -0.0027055551315751
 158    -0.0017658092169586
 159      0.01960141691211
 160    -0.015074630680379
 161    0.0061688063228982
 162    0.0019054424999811
 163    0.0011701523506131
 164    -0.0019354702759655
 165    -0.0020255392366565
 166    0.00022193866938975
 167    -6.9146517781407e-06
 168    0.00014799492741711
 169    -0.0046269140401264
 170     0.016919280481949
 171    -0.00081608189355139
 172    -0.00064719738878843
 173    -0.0049376276154317
 174    -0.00089641919475758
 175    -0.0019321862709337
 176    -0.0082086468245804
 177    -0.0034256325256394
 178    0.0077118187058407
 179    -0.016243370315495
 180    -0.00057354762698795
 181    0.0011940796376112
 182    0.00078146436898596
 183    -0.0009464912749935
 184    -0.00068323844778212
 Sym= B
 Ene=               2
 Spin= Alpha
 Occup=    1.00000
   1    -0.0079859611424413
   2      0.02274737277837
   3     -0.11201322206074
   4      0.11494410598019
   5    -0.013307427350168
   6    -0.024421044708291
   7    -0.00026902713263872
   8    -0.0088489167135516
   9     0.082727363778507
  10    0.00088103703302586
  11     0.029638423269873
  12    -0.077282544619956
  13    -0.0030045391780621
  14    -0.014211524373158
  15    -0.054063946007491
  16      0.10244886743992
  17     0.003665145626414
  18      0.13073865812995
  19    0.0010315923391855
  20    -0.025189080922217
  21     0.047804923984645
  22    0.0010725592038895
  23     0.060881346250435
  24    0.00089619918273984
  25    0.0027810229800226
  26    0.0014967467977729
  27    0.00030666394979468
  28    -0.0041083672660411
  29    -0.00010101072877035
  30    -0.0043063684403891
  31    0.00011972093991607
  32    2.8111392197934e-17
  33    5.3901349350879e-16
  34    4.0381161550144e-16
  35       0.5319011457222
  36    -0.00061434766999267
  37    -4.3255733851126e-15
  38      0.44114292305681
  39    -0.0011248109797255
  40    -3.7185314534029e-15
  41    -9.9408037498588e-17
  42     0.014298531390744
  43    7.9385056127091e-05
  44    -2.3212988965731e-18
  45    -8.5633372992605e-19
  46    0.0079859611424414
  47    -0.022747372778371
  48      0.11201322206074
  49     -0.11494410598019
  50     0.013307427350168
  51    -0.024421044708291
  52    -0.00026902713263871
  53    0.0088489167135514
  54     0.082727363778508
  55    0.00088103703302583
  56    -0.029638423269872
  57    -0.077282544619957
  58    -0.0030045391780621
  59     0.014211524373157
  60     0.054063946007492
  61      0.10244886743992
  62    0.0036651456264144
  63     -0.13073865812995
  64    -0.0010315923391855
  65     0.025189080922217
  66     0.047804923984644
  67    0.0010725592038896
  68    -0.060881346250435
  69    -0.00089619918273982
  70    -0.0027810229800225
  71    0.0014967467977729
  72    0.00030666394979468
  73    0.0041083672660411
  74    0.00010101072877035
  75    -0.0043063684403892
  76    0.00011972093991607
  77    -0.00092509864297516
  78    0.0059522648709638
  79    -0.0072262449860101
  80     -0.01399085650376
  81    0.0028831178423158
  82    -0.0035120028722119
  83    0.0070542973384247
  84    0.0045695275327439
  85    -0.0057917006527022
  86     0.011808396776566
  87     0.012258190952963
  88    -0.011205079733769
  89     0.022265357886131
  90    0.00032112328520156
  91    0.0003233556295619
  92    -0.0005747600840663
  93    0.0002587757051709
  94    0.00016541024297086
  95    -0.001403945277622
  96    0.0092490158777833
  97    -0.017108144740833
  98    -0.0024281191278715
  99     0.010947921280896
 100    -0.0033169409149707
 101    -0.0042344782603885
 102     0.019358073830581
 103    -0.0062900862783828
 104    -0.0077658707303322
 105     0.028754721325576
 106    -0.005088822059963
 107    -0.0068226595501452
 108    -0.00079300914787847
 109    -0.00052843436681377
 110    0.00057293381952392
 111    0.0019417984477271
 112    -0.0010347902579669
 113    -0.0013461679102066
 114    0.0088004060267344
 115    -0.014434590832377
 116    -0.0081581523854117
 117     0.007697788206357
 118     0.008608584793911
 119    -0.0010102129575776
 120     0.012929602578955
 121     0.015346666923059
 122    -0.0016466359110959
 123     0.024984967341889
 124     0.020538984450222
 125    -0.0022830490727914
 126    -0.0013078509532128
 127    0.00055759438127204
 128    9.044603392216e-05
 129    0.00064228092100973
 130      0.00207403556316
 131    0.00092509864297519
 132    -0.0059522648709639
 133    0.0072262449860104
 134      0.01399085650376
 135    0.0028831178423159
 136    -0.003512002872212
 137    -0.0070542973384249
 138    0.0045695275327442
 139    -0.0057917006527024
 140    -0.011808396776566
 141     0.012258190952963
 142    -0.011205079733769
 143    -0.022265357886132
 144    -0.00032112328520154
 145    0.00032335562956194
 146    -0.00057476008406628
 147    -0.00025877570517093
 148    -0.00016541024297084
 149     0.001403945277622
 150    -0.0092490158777833
 151     0.017108144740833
 152     0.002428119127871
 153     0.010947921280896
 154    -0.0033169409149706
 155    0.0042344782603886
 156     0.019358073830581
 157    -0.0062900862783827
 158    0.0077658707303322
 159     0.028754721325575
 160    -0.0050888220599627
 161    0.0068226595501451
 162    0.00079300914787844
 163    -0.00052843436681379
 164    0.00057293381952395
 165    -0.0019417984477271
 166    0.0010347902579669
 167    0.0013461679102066
 168    -0.0088004060267344
 169     0.014434590832377
 170    0.0081581523854114
 171     0.007697788206357
 172     0.008608584793911
 173    0.0010102129575777
 174     0.012929602578955
 175     0.015346666923059
 176     0.001646635911096
 177     0.024984967341889
 178     0.020538984450222
 179    0.0022830490727917
 180    0.0013078509532128
 181    0.00055759438127202
 182    9.0446033922146e-05
 183    -0.00064228092100972
 184     -0.00207403556316
 Sym= B
 Ene=               3
 Spin= Alpha
 Occup=    1.00000
   1    -7.6133268309872e-05
   2    0.00017954525883127
   3    -0.001215331789276
   4     0.004838724364414
   5    0.0042989202310853
   6    9.6607831069336e-05
   7    -0.012908709279147
   8    -0.00049786990864233
   9    -0.00031626051843132
  10     0.041934328435642
  11    0.0015117288833877
  12    0.00058488668210502
  13    -0.092348456680829
  14    0.0014283058343468
  15    -0.0090889324552489
  16     0.003027298326015
  17     0.027145785735274
  18    -0.0098902978810159
  19      0.11368820831599
  20    -0.0026381622572628
  21    0.0015431940761323
  22     0.016947100981956
  23    -0.0044615715155751
  24      0.07264307870282
  25    6.1622930956208e-06
  26    -9.3861364944613e-05
  27    0.00075152421305799
  28    0.00018367058584161
  29    -0.0020414405073383
  30    -3.1855137156193e-05
  31    -0.0041758018330536
  32    1.7487571255669e-16
  33    9.6276329686832e-16
  34    7.1219542104239e-16
  35    -0.003935934862331
  36     -0.55722822751977
  37    -1.302235919597e-14
  38    -0.0018213611823049
  39     -0.47998287024118
  40    -1.1203820781975e-14
  41    -2.9202715453496e-16
  42    -0.00018963329509601
  43    -0.011414098835042
  44    -2.3113076919666e-17
  45    -3.5557783856699e-18
  46    7.6133268310044e-05
  47    -0.00017954525883165
  48    0.0012153317892778
  49    -0.0048387243644166
  50    -0.0042989202310838
  51    9.6607831068782e-05
  52    -0.012908709279147
  53    0.00049786990864187
  54    -0.00031626051842945
  55     0.041934328435642
  56    -0.0015117288833862
  57    0.00058488668210248
  58    -0.092348456680829
  59    -0.0014283058343508
  60    0.0090889324552526
  61     0.003027298326012
  62     0.027145785735275
  63    0.0098902978810122
  64     -0.11368820831599
  65    0.0026381622572648
  66      0.00154319407613
  67     0.016947100981956
  68    0.0044615715155732
  69     -0.07264307870282
  70    -6.1622930955762e-06
  71    -9.3861364944439e-05
  72     0.000751524213058
  73    -0.00018367058584168
  74    0.0020414405073382
  75    -3.1855137156307e-05
  76    -0.0041758018330536
  77    -0.00076944788977918
  78    0.0050307192496078
  79    -0.0059594987029931
  80    -0.017987263084375
  81    0.0040834109725911
  82    0.0020425281917915
  83    0.0058702309527223
  84    0.0079807601503045
  85    0.0031970138558142
  86    0.0093580914278395
  87    0.0089259650058332
  88    0.0061425425045243
  89     0.026908398401919
  90    -0.00081114561406196
  91    0.0021880134838346
  92    0.0010819782271785
  93    0.0010307042681119
  94    0.00012200380649944
  95    -0.00074235003447563
  96     0.004819655665261
  97    -0.0060411176291537
  98    -0.015343969371359
  99    0.0059868352443406
 100    0.0011462882976883
 101    -0.0029440522634848
 102     0.010613413274665
 103      0.00139308996101
 104    -0.0041700803891078
 105     0.019501758938281
 106    0.0062786896528721
 107    -0.015878919420754
 108    -0.0020667307216539
 109    0.00027726459298922
 110    -0.0003642150054488
 111     0.001058424911094
 112    0.00041975419982299
 113    0.0016663373345195
 114    -0.011036882346146
 115     0.016772653394148
 116     0.023768714073338
 117    -0.010639132990536
 118    -0.0065129200946845
 119    0.0014826593351558
 120    -0.019738187286192
 121    -0.010646702188487
 122    0.0016961358103269
 123     -0.02942737400101
 124    -0.030074198997398
 125     0.010501552958137
 126     0.001231182741718
 127    -0.00035893879623056
 128    -0.0020848641637063
 129    -0.0044015063480394
 130    -0.002702997092589
 131    0.00076944788977928
 132    -0.0050307192496083
 133    0.0059594987029941
 134     0.017987263084376
 135    0.0040834109725916
 136    0.0020425281917912
 137    -0.0058702309527227
 138    0.0079807601503054
 139    0.0031970138558137
 140    -0.0093580914278402
 141    0.0089259650058345
 142    0.0061425425045229
 143    -0.026908398401921
 144    0.00081114561406203
 145    0.0021880134838347
 146    0.0010819782271786
 147    -0.001030704268112
 148    -0.00012200380649937
 149    0.0007423500344756
 150    -0.0048196556652608
 151    0.0060411176291536
 152     0.015343969371357
 153    0.0059868352443404
 154    0.0011462882976884
 155    0.0029440522634848
 156     0.010613413274664
 157    0.0013930899610101
 158    0.0041700803891079
 159      0.01950175893828
 160    0.0062786896528728
 161     0.015878919420754
 162    0.0020667307216538
 163    0.00027726459298916
 164    -0.00036421500544871
 165    -0.0010584249110939
 166    -0.000419754199823
 167    -0.0016663373345195
 168     0.011036882346146
 169    -0.016772653394148
 170    -0.023768714073339
 171    -0.010639132990536
 172    -0.0065129200946845
 173    -0.0014826593351555
 174    -0.019738187286192
 175    -0.010646702188487
 176    -0.0016961358103265
 177    -0.029427374001009
 178    -0.030074198997399
 179    -0.010501552958137
 180    -0.0012311827417179
 181    -0.00035893879623061
 182    -0.0020848641637064
 183    0.0044015063480395
 184     0.002702997092589
