[Molden Format]
made by pyscf v[2.1.1]
[Atoms] (AU)
Fe   1   26     3.17068844873907     0.00098706064664     0.12237737881307
O   2   8     0.00000000000000     0.00000000000000    -0.89004350580623
Fe   3   26    -3.17068844873907    -0.00098706064664     0.12237737881307
Cl   4   17     3.53383895113107    -2.07485195383062     3.76228752659000
Cl   5   17     5.54152580550813    -1.85590924879884    -2.78672786652360
Cl   6   17     4.48169216485503     3.92976278472880    -0.95330240907949
Cl   7   17    -3.53383895113107     2.07485195383062     3.76228752659000
Cl   8   17    -5.54152580550813     1.85590924879884    -2.78672786652360
Cl   9   17    -4.48169216485503    -3.92976278472880    -0.95330240907949
[GTO]
1 0
 s    6 1.00
          60923.640643  0.0017552243692958
          9147.8893982   0.013449023284001
          2081.3505927   0.066678874640978
          587.55977067    0.23176348548844
           191.0904399    0.46945550248188
          65.732730112     0.3596824938678
 s    3 1.00
          127.25891928   -0.10723431835929
           14.83091301    0.62971616328466
          6.0653307408    0.44472317896179
 s    3 1.00
           10.44994371   -0.21694289195548
          1.7245228003    0.69457867408393
         0.71772177325    0.43298308896347
 s    1 1.00
        0.091449828308                   1
 s    1 1.00
        0.033706691021                   1
 p    5 1.00
          773.43750995  0.0091440529992506
          182.15149714   0.067887577136571
          57.547272758    0.26167978878504
          20.614988935    0.51088040113251
           7.634855789    0.33235475570224
 p    3 1.00
           3.871932799    0.33193859098144
          1.4924724132     0.5553666555499
         0.56061284958    0.23106034201617
 p    1 1.00
              0.134915                   1
 d    4 1.00
          38.968133419   0.033335938558743
          10.800067078    0.17766212505983
          3.6136457999      0.441281781625
          1.2129967888    0.57089200490673
 d    1 1.00
          0.3652439317                   1
 f    1 1.00
                 1.598                   1

2 0
 s    5 1.00
          2266.1767785  -0.0053893503921743
          340.87010191   -0.04023472138896
          77.363135167   -0.18008184205526
           21.47964494   -0.46828857657651
          6.6589433124   -0.44692617160187
 s    1 1.00
         0.80975975668                   1
 s    1 1.00
         0.25530772234                   1
 p    3 1.00
          17.721504317   0.062630248763161
           3.863550544    0.33331138482352
          1.0480920883    0.74148638308122
 p    1 1.00
         0.27641544411                   1
 d    1 1.00
                   1.2                   1

3 0
 s    6 1.00
          60923.640643  0.0017552243692958
          9147.8893982   0.013449023284001
          2081.3505927   0.066678874640978
          587.55977067    0.23176348548844
           191.0904399    0.46945550248188
          65.732730112     0.3596824938678
 s    3 1.00
          127.25891928   -0.10723431835929
           14.83091301    0.62971616328466
          6.0653307408    0.44472317896179
 s    3 1.00
           10.44994371   -0.21694289195548
          1.7245228003    0.69457867408393
         0.71772177325    0.43298308896347
 s    1 1.00
        0.091449828308                   1
 s    1 1.00
        0.033706691021                   1
 p    5 1.00
          773.43750995  0.0091440529992506
          182.15149714   0.067887577136571
          57.547272758    0.26167978878504
          20.614988935    0.51088040113251
           7.634855789    0.33235475570224
 p    3 1.00
           3.871932799    0.33193859098144
          1.4924724132     0.5553666555499
         0.56061284958    0.23106034201617
 p    1 1.00
              0.134915                   1
 d    4 1.00
          38.968133419   0.033335938558743
          10.800067078    0.17766212505983
          3.6136457999      0.441281781625
          1.2129967888    0.57089200490673
 d    1 1.00
          0.3652439317                   1
 f    1 1.00
                 1.598                   1

4 0
 s    5 1.00
          10449.827566  0.0054265953789407
          1571.7365221   0.040626378128836
          357.12065523    0.18359747852877
          100.25185935    0.47438948768198
          30.812727554    0.43735181104122
 s    3 1.00
          51.923789434  -0.092754154848099
          5.7045760975    0.56380825544207
          2.3508376809    0.50367044629712
 s    1 1.00
         0.44605124672                   1
 s    1 1.00
          0.1684885619                   1
 p    5 1.00
          307.66790569  -0.0088797025588865
          72.102015515  -0.064284071721237
          22.532680262   -0.24288739736006
          7.8991765444   -0.48340836369878
          2.8767268321   -0.38952563875509
 p    1 1.00
         0.77459363955                   1
 p    1 1.00
         0.21037699698                   1
 d    1 1.00
                  0.65                   1

5 0
 s    5 1.00
          10449.827566  0.0054265953789407
          1571.7365221   0.040626378128836
          357.12065523    0.18359747852877
          100.25185935    0.47438948768198
          30.812727554    0.43735181104122
 s    3 1.00
          51.923789434  -0.092754154848099
          5.7045760975    0.56380825544207
          2.3508376809    0.50367044629712
 s    1 1.00
         0.44605124672                   1
 s    1 1.00
          0.1684885619                   1
 p    5 1.00
          307.66790569  -0.0088797025588865
          72.102015515  -0.064284071721237
          22.532680262   -0.24288739736006
          7.8991765444   -0.48340836369878
          2.8767268321   -0.38952563875509
 p    1 1.00
         0.77459363955                   1
 p    1 1.00
         0.21037699698                   1
 d    1 1.00
                  0.65                   1

6 0
 s    5 1.00
          10449.827566  0.0054265953789407
          1571.7365221   0.040626378128836
          357.12065523    0.18359747852877
          100.25185935    0.47438948768198
          30.812727554    0.43735181104122
 s    3 1.00
          51.923789434  -0.092754154848099
          5.7045760975    0.56380825544207
          2.3508376809    0.50367044629712
 s    1 1.00
         0.44605124672                   1
 s    1 1.00
          0.1684885619                   1
 p    5 1.00
          307.66790569  -0.0088797025588865
          72.102015515  -0.064284071721237
          22.532680262   -0.24288739736006
          7.8991765444   -0.48340836369878
          2.8767268321   -0.38952563875509
 p    1 1.00
         0.77459363955                   1
 p    1 1.00
         0.21037699698                   1
 d    1 1.00
                  0.65                   1

7 0
 s    5 1.00
          10449.827566  0.0054265953789407
          1571.7365221   0.040626378128836
          357.12065523    0.18359747852877
          100.25185935    0.47438948768198
          30.812727554    0.43735181104122
 s    3 1.00
          51.923789434  -0.092754154848099
          5.7045760975    0.56380825544207
          2.3508376809    0.50367044629712
 s    1 1.00
         0.44605124672                   1
 s    1 1.00
          0.1684885619                   1
 p    5 1.00
          307.66790569  -0.0088797025588865
          72.102015515  -0.064284071721237
          22.532680262   -0.24288739736006
          7.8991765444   -0.48340836369878
          2.8767268321   -0.38952563875509
 p    1 1.00
         0.77459363955                   1
 p    1 1.00
         0.21037699698                   1
 d    1 1.00
                  0.65                   1

8 0
 s    5 1.00
          10449.827566  0.0054265953789407
          1571.7365221   0.040626378128836
          357.12065523    0.18359747852877
          100.25185935    0.47438948768198
          30.812727554    0.43735181104122
 s    3 1.00
          51.923789434  -0.092754154848099
          5.7045760975    0.56380825544207
          2.3508376809    0.50367044629712
 s    1 1.00
         0.44605124672                   1
 s    1 1.00
          0.1684885619                   1
 p    5 1.00
          307.66790569  -0.0088797025588865
          72.102015515  -0.064284071721237
          22.532680262   -0.24288739736006
          7.8991765444   -0.48340836369878
          2.8767268321   -0.38952563875509
 p    1 1.00
         0.77459363955                   1
 p    1 1.00
         0.21037699698                   1
 d    1 1.00
                  0.65                   1

9 0
 s    5 1.00
          10449.827566  0.0054265953789407
          1571.7365221   0.040626378128836
          357.12065523    0.18359747852877
          100.25185935    0.47438948768198
          30.812727554    0.43735181104122
 s    3 1.00
          51.923789434  -0.092754154848099
          5.7045760975    0.56380825544207
          2.3508376809    0.50367044629712
 s    1 1.00
         0.44605124672                   1
 s    1 1.00
          0.1684885619                   1
 p    5 1.00
          307.66790569  -0.0088797025588865
          72.102015515  -0.064284071721237
          22.532680262   -0.24288739736006
          7.8991765444   -0.48340836369878
          2.8767268321   -0.38952563875509
 p    1 1.00
         0.77459363955                   1
 p    1 1.00
         0.21037699698                   1
 d    1 1.00
                  0.65                   1

[5d]
[7f]
[9g]

[MO]
 Sym= A
 Ene=               0
 Spin= Alpha
 Occup=    1.00000
   1    -7.9447321700973e-05
   2    0.00027464320011935
   3    -0.00088913539197748
   4    -0.0018997049564393
   5    -0.0066999837758308
   6    0.00017979488819026
   7    -0.0020448300939803
   8    -0.0079539122779847
   9    -0.00051599073504255
  10    0.0063486945395626
  11     0.025144561515469
  12    0.0023957804099729
  13     -0.01196638105056
  14    -0.015799832993822
  15       0.3920471880147
  16      0.61699885221001
  17      -0.3858146940771
  18      -0.2792003837389
  19     0.020896155011513
  20      0.10122313262817
  21      0.15885656110466
  22    -0.099988561169996
  23    -0.071689283155452
  24    0.0043527042642796
  25    -0.00037646425148184
  26    0.0029398104614608
  27    -0.00029739220409596
  28    0.0011328155996952
  29    8.0474860735644e-05
  30    -0.0010626718499854
  31    -0.00026744708949601
  32    -0.0016947840569777
  33    -0.0065857537817928
  34    0.0030560863988041
  35    -0.0090057530051313
  36    -0.0085502893712329
  37      0.11490451771645
  38    -0.010380588364383
  39    -0.0078097052746739
  40      0.11401946623849
  41    0.0012177782546232
  42    -0.0027641830321667
  43    -0.00029861706084868
  44    0.00081757945448076
  45    0.00030919633422774
  46    -0.0010768481896859
  47    0.0032049933792636
  48    -0.014383146074924
  49     0.016906473928664
  50    -0.0068744045146721
  51    0.0050406054311518
  52    -0.00037478990549763
  53    0.0022332541304865
  54    -0.016089030535496
  55    0.0011762829401021
  56    -0.0071561314719481
  57     0.015583389363544
  58    -0.0011956694216957
  59     0.021815996136232
  60    -0.0013162883816601
  61     0.002292881948738
  62    -0.0013801204180186
  63    0.0012719474773049
  64    -0.00056440793615651
  65    -0.0027121490198924
  66    0.0056573541344516
  67    0.00010236515718105
  68    0.0014248979837588
  69    -0.00082169300445798
  70    -0.00012275781963012
  71    -0.0009109902607873
  72    -4.8378861581704e-05
  73    0.00025878020710962
  74    4.8792925549445e-05
  75    0.00062747106886079
  76    -8.1696836968944e-05
  77    -0.0041262415406246
  78        0.027096419806
  79    -0.035197511791481
  80    -0.031843347658569
  81    -0.0086912190886644
  82    -0.019081091232604
  83     0.039326680129024
  84    -0.014477725965144
  85     -0.03253293449257
  86     0.067635647479912
  87    -0.024321574471913
  88    -0.058574680726465
  89       0.1181939644949
  90    0.0001678181515769
  91    -0.0011230470196874
  92    0.00099782333563436
  93    0.00038689394449195
  94    0.00097867846381209
  95    0.0038298219942253
  96    -0.025091662091036
  97      0.03209097231184
  98     0.030444602385988
  99    -0.011272232879332
 100     0.018789878356884
 101     0.037286239147316
 102    -0.019662649190281
 103     0.032053932611394
 104     0.063585219822435
 105    -0.034808139299816
 106     0.056563446049437
 107      0.10967127219317
 108    -0.00038399342535244
 109    -0.0012675361686714
 110    0.0002166570717423
 111    0.0011592057431706
 112    -0.0015234628087706
 113    -0.0008288554477927
 114    0.0055253366861716
 115    -0.0096220409385734
 116    0.00074510044183993
 117    0.0092462801480946
 118    0.0072952856879382
 119    0.0093115242318563
 120      0.01566876758713
 121     0.012826983264499
 122     0.015637218473373
 123     0.025610301330817
 124     0.019384863879663
 125     0.026775598383235
 126    -0.00049731260845542
 127    0.00061320214407963
 128    0.0014852878984865
 129    -0.00030945328054128
 130    0.0010338485292307
 131    -0.00036917910615848
 132    0.0024763463908407
 133    -0.0036642315859358
 134    -0.0065562770919791
 135    -0.0018542457290304
 136    0.0013299282897804
 137    0.0015818384368858
 138    -0.003350959319903
 139    0.0020892852036826
 140    0.0026703639418028
 141    -0.0056071151295612
 142    0.0069226458857708
 143    0.0078723532032541
 144    -7.0402816683749e-05
 145    -0.00073438362054295
 146    6.8648872863052e-05
 147    0.00027181384444907
 148    -0.00041721437350733
 149    0.00016187954261212
 150    -0.0010589650588662
 151    0.00059237625030684
 152    0.0076212173180516
 153    0.0021923546134249
 154    -5.2972104651836e-05
 155    -0.0014865648522976
 156     0.003862175927507
 157    0.00010246319799663
 158    -0.0026694128928504
 159    0.0072332756193873
 160    -0.0029363769754728
 161    -0.0011814589349153
 162    9.8743845989657e-05
 163    0.0003442085575731
 164    -0.00014778389775868
 165    -0.00022713201327847
 166    -3.3146764779508e-05
 167    -7.7522628711056e-05
 168    0.00053640618898515
 169    -0.0016311356175422
 170    0.0025487780151612
 171    -0.00034336559963857
 172    -0.00036903366559163
 173    -0.0018026982961956
 174    -0.00052380459512785
 175    -0.00080999877049312
 176    -0.0029795477826769
 177    -0.0015647598933327
 178    0.00069916113163186
 179    -0.0058513019644101
 180    -0.00017009913895194
 181    0.00032652225168063
 182    0.00011291244604841
 183    -3.4174602122707e-05
 184    0.00021593929670255
 Sym= A
 Ene=               1
 Spin= Alpha
 Occup=    1.00000
   1    -0.00041133238465498
   2    0.0013027774275513
   3    -0.0051406998093192
   4    -0.0069511999859871
   5    0.0068359951713665
   6    -0.0066466417928617
   7     -0.00520663441722
   8    -0.0059473050174724
   9     0.020675957384653
  10     0.016410234982327
  11     0.018514643101272
  12    -0.015707842767512
  13    -0.012274344645066
  14    -0.020385308604097
  15    -0.042588057835507
  16     -0.25536491754758
  17     -0.26855217059673
  18     -0.17609952414103
  19      0.76892904241729
  20      -0.0108276206642
  21    -0.070105230541517
  22    -0.071959574517947
  23    -0.044345585753662
  24      0.19938081214336
  25    0.00055680555807403
  26    7.0390350741047e-05
  27    -0.00080140434709321
  28    -0.0014333644559867
  29    0.0015116967524056
  30    -0.00056955920562308
  31    0.0024414337216981
  32    0.0099990786636576
  33     0.020421394507453
  34     0.029387975735672
  35     0.049180911778784
  36      0.10040783542786
  37    -0.0035449387638818
  38     0.054983748830625
  39     0.098384914858647
  40    0.00019209037317413
  41    0.00055866875233931
  42    0.00077757976944121
  43    0.0010264375363992
  44    -0.0010126921292404
  45    -0.0020957762898608
  46    0.0008718766851423
  47    -0.0025522215625306
  48     0.011852218598348
  49    -0.010340781500845
  50    -0.0028204249277499
  51    -0.0032460805240964
  52    0.0031084081209824
  53    0.00099440224563905
  54     0.010528072764135
  55    -0.0099064275763356
  56    -0.0031744838709015
  57    -0.0091258504706239
  58     0.019806617215158
  59    -4.2553026088776e-05
  60    0.00083859387626004
  61    0.0023590807005585
  62    0.0001430414711216
  63    -0.0044053278739608
  64    0.0027093756698882
  65    0.00061670509075258
  66    0.00030453245172657
  67    -0.0015169172299342
  68    -0.0017555862689004
  69    0.0062185343865498
  70    -0.0001729628876258
  71    7.3359336872643e-05
  72    -9.6266883042852e-05
  73    0.00034748367222996
  74    -0.0004488076617901
  75    -0.00026516648354644
  76    0.00087422393753588
  77    -0.00066848530196222
  78    0.0044293917917767
  79    -0.0068509533133726
  80    -0.00081954172357917
  81     0.020483515943694
  82    0.0058615760600761
  83    0.0084306052806775
  84     0.034641732770006
  85    0.0098324229188386
  86     0.014816390480255
  87     0.058247472413931
  88     0.017369443075979
  89      0.02203409801231
  90    0.00091288541648195
  91    0.0028517410267441
  92    0.00051993294390664
  93    0.00075890135788346
  94    -0.00075148432136582
  95    0.0024589024016535
  96    -0.016145227586001
  97     0.021894591954589
  98     0.015944272695485
  99     -0.01011148662491
 100    0.0033089808650541
 101     0.026163164029926
 102    -0.017471021557945
 103    0.0060664936894906
 104     0.044294204573508
 105    -0.029399661020445
 106     0.010430898286517
 107     0.077691898073967
 108    -0.00047583141815783
 109    -0.00085168543913502
 110    0.00068228590150497
 111    0.00039672223897288
 112    -0.00069059875262782
 113    -0.0040883638549292
 114     0.026724369198669
 115    -0.033987372689202
 116    -0.032261703937155
 117    0.00097970124086278
 118      0.04605452024418
 119    -0.0027550046685255
 120    0.0021057630080167
 121     0.078227626069451
 122    -0.004458230826511
 123     0.004537829154162
 124      0.13629261949706
 125    -0.010008168464646
 126    -0.00024211598612832
 127    0.0010327300683132
 128    0.0022559965069361
 129    1.2581822324936e-05
 130    -0.001541670602666
 131    8.4135932096865e-06
 132    -4.4163347687419e-05
 133    0.0001251179210068
 134    -0.0011073708371805
 135    -0.00064222336886803
 136    -0.001318539347823
 137    0.00036912294758206
 138    -0.0011321803465282
 139    -0.0021815381122913
 140    0.00056593860844398
 141    -0.0012720259170737
 142    -0.003951292423803
 143    0.0026451040117695
 144    1.3467818141078e-05
 145    -7.8444121796502e-05
 146    -0.0001340388326242
 147    0.00011062221450553
 148    0.00018031697177445
 149    -2.0501703153016e-05
 150    0.00013771809618142
 151    9.1921050483403e-05
 152    -0.002400453548577
 153    -0.00089839490874548
 154    -0.00096142401821072
 155    0.00025060765995718
 156    -0.0014894867727061
 157    -0.0016143867929879
 158    0.00063776691736131
 159    -0.003415822302282
 160    -0.0025701323089548
 161    -0.0018150384849334
 162    -1.9654948050991e-05
 163    -0.00018849100419383
 164    6.6323142149688e-05
 165    -8.7259549834113e-05
 166    0.00029119203286805
 167    0.00054784236044723
 168    -0.0036437700163129
 169    0.0055413630873121
 170    0.0071847921429341
 171    0.0045916731270895
 172    0.0021285920716155
 173    -5.3786386616983e-05
 174     0.008228018255015
 175    0.0036626462537365
 176    -0.000286218227651
 177     0.012574742563993
 178    0.0087943015552576
 179    0.0017055265446341
 180    0.00045548052662651
 181    0.00012134865980151
 182    0.0002628273780887
 183    -0.00075517322457663
 184    -0.00087202510038337
 Sym= A
 Ene=               2
 Spin= Alpha
 Occup=    1.00000
   1    -0.0007153526805407
   2    0.0020564454142123
   3    -0.0098238958346323
   4     0.029983563759199
   5    -0.016709661649156
   6    0.0075912597341837
   7    -0.0026828263245743
   8    0.0065664080524372
   9    -0.023628187914771
  10    0.0086053355715946
  11    -0.020411521699582
  12     0.020648097515094
  13    -0.0033846245251983
  14     0.019543897848036
  15     -0.34527396583843
  16      0.46727935239258
  17      0.55460837109322
  18     -0.20241290719107
  19      0.28162124343081
  20    -0.091330670865354
  21      0.12618582771084
  22      0.14889882601065
  23    -0.054868257218687
  24     0.071401540954293
  25    -0.0014730885549963
  26    0.0004978262604663
  27    0.00047137335556613
  28    0.00073426739202396
  29    0.0017490073225977
  30    0.00025227600442718
  31    0.0012145279489232
  32    -0.0094564306845675
  33     -0.01971498509821
  34    -0.026268510083619
  35    -0.045181168625846
  36     0.065278096333452
  37     0.018765013937024
  38    -0.050995697126487
  39     0.063766373336426
  40     0.015563503549983
  41    -0.0005920609341048
  42    -0.00096614678331268
  43    0.0011287391662817
  44    0.0006727413360622
  45    -0.0015286131189727
  46    -0.00097875536900367
  47    0.0028655346276033
  48    -0.013297242441938
  49     0.012730628965384
  50    0.0052364885983027
  51    0.0036005291865644
  52    0.0019867163496711
  53    -0.00081123040310137
  54    -0.011645067818828
  55    -0.0063312267168305
  56    0.0025773728518195
  57    0.0099393603703788
  58     0.012816797237584
  59    0.0024763283881704
  60    -0.0025188976014623
  61    -0.0016639776906422
  62    -0.00043890345249581
  63    0.0034778960305469
  64    0.0015711854345057
  65    -0.0011592016772199
  66    0.00030966343759614
  67    -0.00099807838838955
  68    0.00094525853694745
  69    0.0042563639679129
  70    0.00016268106844687
  71    -0.00015457896079584
  72    -0.00014522178868009
  73    -0.000206745828115
  74    -0.00031329971607576
  75    0.0003241678030273
  76    0.00055303053278333
  77    0.0028388425616324
  78    -0.018587936850881
  79     0.022695361701783
  80     0.021864815356751
  81    -0.015360558780469
  82     0.013797563270563
  83    -0.024667219215496
  84    -0.026208635906524
  85     0.023701558344189
  86    -0.042374160617376
  87    -0.043578352166957
  88     0.040818425526844
  89    -0.073391107845015
  90    0.00038803174284457
  91    -0.001333494595905
  92    -0.00010700762365933
  93    -0.00092903531784554
  94    0.0014813075557754
  95    0.0013717514781661
  96    -0.0089921987435789
  97     0.010938502057665
  98     0.012514262309776
  99    -0.00057209560865823
 100     0.025737241726469
 101    0.0034104588347524
 102    -0.0012471993988466
 103     0.043871338978216
 104    0.0061239757622192
 105    -0.0037988191809458
 106     0.072846580381324
 107     0.010591824637175
 108    0.00091118092164614
 109    -0.001330796059457
 110    -0.00084699757693984
 111    0.0018379125969389
 112    0.0013472027635697
 113    -0.0012806703371581
 114    0.0083554832439294
 115    -0.011094917445774
 116    -0.0097653023090656
 117    -0.0011776388549253
 118     0.008278971416342
 119    -0.029181693004865
 120    -0.0018885762348579
 121     0.013836406656925
 122    -0.048891212910093
 123    -0.0034474906236098
 124     0.026630065724417
 125    -0.083900941136302
 126    0.0013650415746563
 127    -0.0006387710856302
 128    -0.0015067532816076
 129    0.0011495995526202
 130    -0.0014567779898732
 131    -0.0002835398681587
 132    0.0018668497375595
 133    -0.0022393896180452
 134    -0.005990618222361
 135    -0.0014429436466092
 136    0.00015223934061269
 137    0.0016409167562581
 138    -0.0026927902834875
 139    0.00028707302232698
 140    0.0026671529242141
 141    -0.0036911051350468
 142      0.00116032096626
 143    0.0073820978724766
 144    2.2536966951147e-05
 145    -0.00051806942022802
 146    -3.2840708837291e-05
 147    0.00022937505371951
 148    -0.0001816560465616
 149    -0.0002387177591895
 150    0.0015771646003447
 151    -0.0023735048788397
 152     -0.00277994717118
 153    -0.0020346690935678
 154    -0.00011199107261037
 155    -0.00080468260799011
 156    -0.0036861262938437
 157    -1.5305928446368e-05
 158    -0.0013413742609672
 159    -0.0055183754867866
 160    -0.0012582552227881
 161    -0.0028881214077286
 162    -0.00031942887459809
 163    0.00021823590749227
 164    -3.3391667696639e-05
 165    0.00038701284414586
 166    -0.00015227538057572
 167    0.00010585989640759
 168    -0.00072647833549642
 169    0.0013704937446165
 170    0.0014521643617316
 171    0.0018298573316391
 172    1.9553119003409e-05
 173    -0.00052959137060592
 174    0.0032807240375357
 175    -3.9343327087774e-05
 176    -0.00096499205514421
 177    0.0045949606436329
 178    0.0019385525423826
 179    -0.00066501795722798
 180    -1.6151876875458e-05
 181    0.00012892595399745
 182    0.00010306264223384
 183    -0.00038964113633081
 184    0.00010332756435368
 Sym= A
 Ene=               3
 Spin= Alpha
 Occup=    1.00000
   1    -0.00014982748637369
   2    0.00049903979220539
   3    -0.0017729511398262
   4    -0.0077382197363295
   5    0.0044343881326274
   6    -0.0052648765805973
   7    -0.0093061029478535
   8    -0.0041169044043095
   9     0.016425613678008
  10     0.028846482208129
  11      0.01264945712583
  12    -0.014389706712052
  13    -0.035894888893351
  14     -0.01425928097218
  15     -0.58760451389508
  16    -0.049933225540788
  17     -0.34879641100148
  18     -0.46404230770653
  19     -0.28433156592698
  20      -0.1577530936504
  21    -0.013674153995425
  22    -0.092928987692634
  23     -0.12346179865736
  24    -0.077885604193882
  25    -0.00070183045033427
  26    -0.00062899198530592
  27    -0.00036805842121977
  28    -0.0013546500719811
  29    -0.00091201346369345
  30    -0.00099755994581308
  31    -0.00072327385803175
  32    0.0078138488263502
  33     0.016428711894752
  34     0.021126804623316
  35     0.036906219747472
  36    -0.038945418873226
  37     -0.01293925777761
  38     0.041425739866281
  39    -0.036869172894148
  40    -0.010358791059205
  41    -6.3739244357019e-05
  42    0.00096272261725011
  43    -0.00058612254453982
  44    -0.0010455558175591
  45    0.00087485678000931
  46    0.00077537339013752
  47    -0.002266466651367
  48     0.010549828338998
  49    -0.010739103468109
  50    -0.0013602827321711
  51    -0.0028155212452212
  52    -0.0011452957165371
  53    0.00073483004105053
  54    0.0091041515867409
  55    0.0036419628339027
  56    -0.0023376303787846
  57    -0.0074017860800114
  58    -0.0071814409481163
  59    -0.0014401279829771
  60    0.0018843599468467
  61    0.0019891034216742
  62    0.00048492955079778
  63    -0.0026119987308573
  64    -0.0021075447540309
  65    0.00092705768285234
  66    -0.00022812316757103
  67    0.00059574487861402
  68    -0.00094698604883953
  69    -0.0029067305246198
  70    -0.00013200409499654
  71    0.00012609232952537
  72    9.7952907689891e-05
  73    0.00017517150726279
  74    0.00018378771098323
  75    -0.00026715094567765
  76    -0.00033261890075892
  77    1.5559121406335e-05
  78    -8.8256678512421e-05
  79    0.00011412177054152
  80    -0.00062841624836798
  81    -0.0013401373282585
  82     0.027473898426117
  83     0.014824029247928
  84    -0.0022487716157069
  85      0.04643950153403
  86      0.02517658352302
  87      -0.0032521692092
  88     0.078224115995403
  89     0.042358937005431
  90    0.0031516147204447
  91    4.0299068808165e-05
  92    0.0018208093703846
  93    0.0013169423310622
  94     0.000263901067256
  95     0.001359934497892
  96    -0.0089638489118443
  97     0.012783300593767
  98    0.0055299680831794
  99    -0.012432781601412
 100     0.023251696992694
 101    -0.0053934218627375
 102    -0.021284708631492
 103     0.039298544895309
 104    -0.0088915469867575
 105    -0.034180024040944
 106      0.06742125628647
 107    -0.014317097767053
 108    0.0022951622441778
 109    -0.001076856539728
 110    -0.00060023139524762
 111    0.00042353273002991
 112    0.0014241333071082
 113    -0.0030679554946476
 114     0.020081567141205
 115     -0.02664725421641
 116     -0.01658562307538
 117     0.024158715870487
 118     0.025988208532475
 119    -0.0036218640815679
 120     0.040889617966564
 121     0.044396215191322
 122    -0.0060322569443691
 123     0.068451697642284
 124     0.074811320166211
 125    -0.010591830196015
 126    -0.00059167012062664
 127    -0.00039281875401142
 128    0.0014857239207182
 129    0.0016462595036463
 130    0.0010511081964808
 131      0.00018084130467
 132    -0.0011694750327439
 133    0.0010399542201495
 134    0.0044993413857258
 135    0.0011767386291187
 136    -0.00011697023918323
 137    -0.0014074010014179
 138    0.0020069189897899
 139    -0.00011791162427372
 140    -0.0023649626751494
 141    0.0036672964552466
 142    -0.0011834213413675
 143    -0.0054743849462949
 144    -3.4833961194964e-05
 145    0.00035829373083319
 146    2.7163776529571e-05
 147    -0.00014478997115462
 148    5.0599726887576e-05
 149    0.00016930627769728
 150    -0.001125733752239
 151    0.0018664245476948
 152    0.0013844557707704
 153    0.0013804125906103
 154    2.1103024102635e-05
 155    0.00053437019821011
 156    0.0025097202651842
 157    -7.1320021716924e-05
 158    0.00090124513128224
 159    0.0037360250822936
 160    0.00062862768864602
 161    0.0017974777721791
 162    0.0002391964227551
 163    -0.00016732501991025
 164    2.5601746898414e-05
 165    -0.00029217264783362
 166    0.00013729363710514
 167    -4.2119788949211e-05
 168    0.00029324632218499
 169    -0.00064843431893161
 170    -0.00047711319755992
 171    -0.0011979203955449
 172    0.00014906521349028
 173    0.00035305010204696
 174    -0.0021757276555182
 175    0.0002840443858583
 176    0.00061987646470724
 177    -0.0026678752411921
 178    -0.00047477858467275
 179    0.00061877586414241
 180    5.5695355733473e-05
 181    -7.5899842357192e-05
 182    -4.880171702721e-05