[Molden Format]
made by pyscf v[2.1.1]
[Atoms] (AU)
Fe   1   26     3.17068844873907     0.00098706064664     0.12237737881307
O   2   8     0.00000000000000     0.00000000000000    -0.89004350580623
Fe   3   26    -3.17068844873907    -0.00098706064664     0.12237737881307
Cl   4   17     3.53383895113107    -2.07485195383062     3.76228752659000
Cl   5   17     5.54152580550813    -1.85590924879884    -2.78672786652360
Cl   6   17     4.48169216485503     3.92976278472880    -0.95330240907949
Cl   7   17    -3.53383895113107     2.07485195383062     3.76228752659000
Cl   8   17    -5.54152580550813     1.85590924879884    -2.78672786652360
Cl   9   17    -4.48169216485503    -3.92976278472880    -0.95330240907949
[GTO]
1 0
 s    6 1.00
          60923.640643  0.0017552243692958
          9147.8893982   0.013449023284001
          2081.3505927   0.066678874640978
          587.55977067    0.23176348548844
           191.0904399    0.46945550248188
          65.732730112     0.3596824938678
 s    3 1.00
          127.25891928   -0.10723431835929
           14.83091301    0.62971616328466
          6.0653307408    0.44472317896179
 s    3 1.00
           10.44994371   -0.21694289195548
          1.7245228003    0.69457867408393
         0.71772177325    0.43298308896347
 s    1 1.00
        0.091449828308                   1
 s    1 1.00
        0.033706691021                   1
 p    5 1.00
          773.43750995  0.0091440529992506
          182.15149714   0.067887577136571
          57.547272758    0.26167978878504
          20.614988935    0.51088040113251
           7.634855789    0.33235475570224
 p    3 1.00
           3.871932799    0.33193859098144
          1.4924724132     0.5553666555499
         0.56061284958    0.23106034201617
 p    1 1.00
              0.134915                   1
 d    4 1.00
          38.968133419   0.033335938558743
          10.800067078    0.17766212505983
          3.6136457999      0.441281781625
          1.2129967888    0.57089200490673
 d    1 1.00
          0.3652439317                   1
 f    1 1.00
                 1.598                   1

2 0
 s    5 1.00
          2266.1767785  -0.0053893503921743
          340.87010191   -0.04023472138896
          77.363135167   -0.18008184205526
           21.47964494   -0.46828857657651
          6.6589433124   -0.44692617160187
 s    1 1.00
         0.80975975668                   1
 s    1 1.00
         0.25530772234                   1
 p    3 1.00
          17.721504317   0.062630248763161
           3.863550544    0.33331138482352
          1.0480920883    0.74148638308122
 p    1 1.00
         0.27641544411                   1
 d    1 1.00
                   1.2                   1

3 0
 s    6 1.00
          60923.640643  0.0017552243692958
          9147.8893982   0.013449023284001
          2081.3505927   0.066678874640978
          587.55977067    0.23176348548844
           191.0904399    0.46945550248188
          65.732730112     0.3596824938678
 s    3 1.00
          127.25891928   -0.10723431835929
           14.83091301    0.62971616328466
          6.0653307408    0.44472317896179
 s    3 1.00
           10.44994371   -0.21694289195548
          1.7245228003    0.69457867408393
         0.71772177325    0.43298308896347
 s    1 1.00
        0.091449828308                   1
 s    1 1.00
        0.033706691021                   1
 p    5 1.00
          773.43750995  0.0091440529992506
          182.15149714   0.067887577136571
          57.547272758    0.26167978878504
          20.614988935    0.51088040113251
           7.634855789    0.33235475570224
 p    3 1.00
           3.871932799    0.33193859098144
          1.4924724132     0.5553666555499
         0.56061284958    0.23106034201617
 p    1 1.00
              0.134915                   1
 d    4 1.00
          38.968133419   0.033335938558743
          10.800067078    0.17766212505983
          3.6136457999      0.441281781625
          1.2129967888    0.57089200490673
 d    1 1.00
          0.3652439317                   1
 f    1 1.00
                 1.598                   1

4 0
 s    5 1.00
          10449.827566  0.0054265953789407
          1571.7365221   0.040626378128836
          357.12065523    0.18359747852877
          100.25185935    0.47438948768198
          30.812727554    0.43735181104122
 s    3 1.00
          51.923789434  -0.092754154848099
          5.7045760975    0.56380825544207
          2.3508376809    0.50367044629712
 s    1 1.00
         0.44605124672                   1
 s    1 1.00
          0.1684885619                   1
 p    5 1.00
          307.66790569  -0.0088797025588865
          72.102015515  -0.064284071721237
          22.532680262   -0.24288739736006
          7.8991765444   -0.48340836369878
          2.8767268321   -0.38952563875509
 p    1 1.00
         0.77459363955                   1
 p    1 1.00
         0.21037699698                   1
 d    1 1.00
                  0.65                   1

5 0
 s    5 1.00
          10449.827566  0.0054265953789407
          1571.7365221   0.040626378128836
          357.12065523    0.18359747852877
          100.25185935    0.47438948768198
          30.812727554    0.43735181104122
 s    3 1.00
          51.923789434  -0.092754154848099
          5.7045760975    0.56380825544207
          2.3508376809    0.50367044629712
 s    1 1.00
         0.44605124672                   1
 s    1 1.00
          0.1684885619                   1
 p    5 1.00
          307.66790569  -0.0088797025588865
          72.102015515  -0.064284071721237
          22.532680262   -0.24288739736006
          7.8991765444   -0.48340836369878
          2.8767268321   -0.38952563875509
 p    1 1.00
         0.77459363955                   1
 p    1 1.00
         0.21037699698                   1
 d    1 1.00
                  0.65                   1

6 0
 s    5 1.00
          10449.827566  0.0054265953789407
          1571.7365221   0.040626378128836
          357.12065523    0.18359747852877
          100.25185935    0.47438948768198
          30.812727554    0.43735181104122
 s    3 1.00
          51.923789434  -0.092754154848099
          5.7045760975    0.56380825544207
          2.3508376809    0.50367044629712
 s    1 1.00
         0.44605124672                   1
 s    1 1.00
          0.1684885619                   1
 p    5 1.00
          307.66790569  -0.0088797025588865
          72.102015515  -0.064284071721237
          22.532680262   -0.24288739736006
          7.8991765444   -0.48340836369878
          2.8767268321   -0.38952563875509
 p    1 1.00
         0.77459363955                   1
 p    1 1.00
         0.21037699698                   1
 d    1 1.00
                  0.65                   1

7 0
 s    5 1.00
          10449.827566  0.0054265953789407
          1571.7365221   0.040626378128836
          357.12065523    0.18359747852877
          100.25185935    0.47438948768198
          30.812727554    0.43735181104122
 s    3 1.00
          51.923789434  -0.092754154848099
          5.7045760975    0.56380825544207
          2.3508376809    0.50367044629712
 s    1 1.00
         0.44605124672                   1
 s    1 1.00
          0.1684885619                   1
 p    5 1.00
          307.66790569  -0.0088797025588865
          72.102015515  -0.064284071721237
          22.532680262   -0.24288739736006
          7.8991765444   -0.48340836369878
          2.8767268321   -0.38952563875509
 p    1 1.00
         0.77459363955                   1
 p    1 1.00
         0.21037699698                   1
 d    1 1.00
                  0.65                   1

8 0
 s    5 1.00
          10449.827566  0.0054265953789407
          1571.7365221   0.040626378128836
          357.12065523    0.18359747852877
          100.25185935    0.47438948768198
          30.812727554    0.43735181104122
 s    3 1.00
          51.923789434  -0.092754154848099
          5.7045760975    0.56380825544207
          2.3508376809    0.50367044629712
 s    1 1.00
         0.44605124672                   1
 s    1 1.00
          0.1684885619                   1
 p    5 1.00
          307.66790569  -0.0088797025588865
          72.102015515  -0.064284071721237
          22.532680262   -0.24288739736006
          7.8991765444   -0.48340836369878
          2.8767268321   -0.38952563875509
 p    1 1.00
         0.77459363955                   1
 p    1 1.00
         0.21037699698                   1
 d    1 1.00
                  0.65                   1

9 0
 s    5 1.00
          10449.827566  0.0054265953789407
          1571.7365221   0.040626378128836
          357.12065523    0.18359747852877
          100.25185935    0.47438948768198
          30.812727554    0.43735181104122
 s    3 1.00
          51.923789434  -0.092754154848099
          5.7045760975    0.56380825544207
          2.3508376809    0.50367044629712
 s    1 1.00
         0.44605124672                   1
 s    1 1.00
          0.1684885619                   1
 p    5 1.00
          307.66790569  -0.0088797025588865
          72.102015515  -0.064284071721237
          22.532680262   -0.24288739736006
          7.8991765444   -0.48340836369878
          2.8767268321   -0.38952563875509
 p    1 1.00
         0.77459363955                   1
 p    1 1.00
         0.21037699698                   1
 d    1 1.00
                  0.65                   1

[5d]
[7f]
[9g]

[MO]
 Sym= A
 Ene=               0
 Spin= Alpha
 Occup=    1.00000
   1    -0.024155103090421
   2     0.071761188227285
   3     -0.32682296379317
   4    -0.060024381876373
   5     0.071456562930562
   6     -0.10263784431272
   7    9.0257545634297e-05
   8    -0.036744146689969
   9      0.34226357614342
  10    -0.00017122688555796
  11      0.12155207249104
  12    -0.060371941268718
  13    -0.012388600138314
  14    0.0061908629269315
  15    -0.035110596971052
  16     0.080782712361157
  17     0.010012364880718
  18      0.10389505452207
  19    -0.008022203845216
  20    -0.016751242771994
  21     0.043871983463342
  22    0.0056002090541361
  23     0.055245848503382
  24    -0.006016209414005
  25    0.0010363856007744
  26    0.00070839237999097
  27    0.0012168640525078
  28    -0.0023322021968821
  29    -0.00030786330079404
  30    -0.0017498783231865
  31    0.00062905128022092
  32    6.3950490053897e-17
  33    -6.3634971163551e-17
  34    -4.6401708963966e-17
  35      0.27786666765737
  36    0.0058141268014515
  37    7.2613831558377e-17
  38      0.23217347309434
  39     0.007368712395789
  40    6.0843494956867e-17
  41    2.3881679100372e-18
  42    0.0069193995240317
  43    0.0003257393941289
  44    -1.4108644865181e-18
  45    7.3579643750519e-20
  46     0.024155103090421
  47    -0.071761188227285
  48      0.32682296379317
  49     0.060024381876373
  50    -0.071456562930562
  51     -0.10263784431272
  52    9.0257545634303e-05
  53     0.036744146689969
  54      0.34226357614342
  55    -0.00017122688555796
  56     -0.12155207249104
  57    -0.060371941268718
  58    -0.012388600138314
  59    -0.0061908629269315
  60     0.035110596971052
  61     0.080782712361157
  62     0.010012364880718
  63     -0.10389505452207
  64     0.008022203845216
  65     0.016751242771994
  66     0.043871983463342
  67    0.0056002090541361
  68    -0.055245848503382
  69     0.006016209414005
  70    -0.0010363856007744
  71    0.00070839237999097
  72    0.0012168640525078
  73    0.0023322021968821
  74    0.00030786330079404
  75    -0.0017498783231865
  76    0.00062905128022092
  77    -0.0027495249707244
  78     0.018140141458789
  79    -0.023613719865696
  80    -0.026504545817243
  81      0.03887503098633
  82    -0.00047763481639427
  83     0.022186792693281
  84     0.070439241242274
  85    -0.0011519665949132
  86     0.040940811657349
  87      0.10790986763088
  88    9.5604277740161e-05
  89     0.059553341323882
  90    -0.0033611400236621
  91    -0.0031565800763616
  92    0.0022653340751865
  93    0.00073009966388722
  94    0.0021226010057022
  95    -0.0055412865462334
  96      0.03723859938629
  97    -0.055897353430253
  98    -0.033431167042068
  99     0.046639760281929
 100    -0.014705691321584
 101    -0.0099903088180706
 102      0.08540684322367
 103    -0.030097309430894
 104      -0.0225950750667
 105      0.12381091997225
 106     -0.03466674419563
 107    -0.023431996894378
 108    -0.00024237868693903
 109    0.0057951408010342
 110    -0.0032387510722228
 111    6.6025024374161e-06
 112    0.0035925655020646
 113    -0.008355606575042
 114     0.056312334795385
 115    -0.084362645703517
 116    -0.053622590929287
 117     0.041209922925564
 118     0.047728563746276
 119    -0.00064939541152239
 120     0.074742426614303
 121     0.093942554497069
 122    -0.0031162110099244
 123      0.11226003122965
 124      0.12846164996214
 125    -0.0044142574414105
 126    0.0033510303062027
 127    0.0023113987208868
 128    0.0036894166530812
 129    0.0069855111811773
 130    -0.0047648385402932
 131    0.0027495249707248
 132    -0.018140141458789
 133     0.023613719865696
 134     0.026504545817243
 135      0.03887503098633
 136    -0.00047763481639427
 137    -0.022186792693281
 138     0.070439241242274
 139    -0.0011519665949132
 140    -0.040940811657349
 141      0.10790986763088
 142    9.5604277740147e-05
 143    -0.059553341323882
 144    0.0033611400236621
 145    -0.0031565800763616
 146    0.0022653340751865
 147    -0.00073009966388722
 148    -0.0021226010057022
 149    0.0055412865462334
 150     -0.03723859938629
 151     0.055897353430253
 152     0.033431167042067
 153     0.046639760281929
 154    -0.014705691321584
 155    0.0099903088180706
 156      0.08540684322367
 157    -0.030097309430894
 158       0.0225950750667
 159      0.12381091997225
 160     -0.03466674419563
 161     0.023431996894378
 162    0.00024237868693903
 163    0.0057951408010341
 164    -0.0032387510722228
 165    -6.6025024374173e-06
 166    -0.0035925655020646
 167     0.008355606575042
 168    -0.056312334795385
 169     0.084362645703517
 170     0.053622590929287
 171     0.041209922925564
 172     0.047728563746275
 173    0.00064939541152238
 174     0.074742426614303
 175     0.093942554497069
 176    0.0031162110099244
 177      0.11226003122965
 178      0.12846164996214
 179    0.0044142574414105
 180    -0.0033510303062027
 181    0.0023113987208868
 182    0.0036894166530812
 183    -0.0069855111811773
 184    0.0047648385402932
 Sym= A
 Ene=               1
 Spin= Alpha
 Occup=    1.00000
   1    -0.0063603254159867
   2     0.019124958105315
   3    -0.084997008302457
   4    -0.031965539316584
   5    0.0066140355189928
   6    -0.034046141817955
   7    -0.0042791265456853
   8    -0.0028386835400677
   9      0.11152355473999
  10      0.01349985115216
  11     0.011285436222212
  12    0.0094361665299332
  13    -0.017800322243501
  14    -0.057552554323824
  15    -0.033543965883158
  16    -0.048230898875188
  17     0.077851948830409
  18     0.055656070888356
  19    -0.029867186644392
  20    -0.023542252345057
  21    -0.035153241859488
  22     0.051529761065861
  23     0.035457983165521
  24    -0.019805008293733
  25    -0.0003131633345977
  26    0.0012309750905965
  27    0.0014203450625983
  28    0.00011445848020596
  29    0.0019787128121537
  30    -0.00041159888285055
  31    -0.0005248365017908
  32     0.049284232939005
  33      0.03704816639374
  34     0.034753020377641
  35     6.28501482896e-17
  36    4.5107157168525e-18
  37      0.10533839387955
  38    5.0865228486652e-17
  39    2.060819994709e-18
  40      0.10215014344876
  41    0.0017877377403966
  42    1.9436578168138e-18
  43    -6.3463235219312e-20
  44    0.0012032688972585
  45    -0.00052923834175879
  46    -0.0063603254159867
  47     0.019124958105315
  48    -0.084997008302457
  49    -0.031965539316584
  50    0.0066140355189928
  51     0.034046141817955
  52    0.0042791265456853
  53    -0.0028386835400677
  54     -0.11152355473999
  55     -0.01349985115216
  56     0.011285436222212
  57    -0.0094361665299332
  58     0.017800322243501
  59    -0.057552554323824
  60    -0.033543965883158
  61     0.048230898875188
  62    -0.077851948830409
  63     0.055656070888356
  64    -0.029867186644392
  65    -0.023542252345057
  66     0.035153241859488
  67    -0.051529761065861
  68     0.035457983165521
  69    -0.019805008293733
  70    -0.0003131633345977
  71    -0.0012309750905965
  72    -0.0014203450625983
  73    0.00011445848020596
  74    0.0019787128121537
  75    0.00041159888285055
  76    0.0005248365017908
  77    -0.013988801342639
  78     0.097704679147039
  79     -0.16285652521496
  80    -0.088333398441716
  81    0.0053376968292545
  82     -0.02947393941628
  83     0.076330361509738
  84     0.010722036629632
  85    -0.067106933847167
  86      0.16258182405725
  87     0.011601861406104
  88     -0.09227464563195
  89      0.23171592271614
  90    -0.010303580051746
  91    -0.0015578303183637
  92     0.012877059050187
  93    0.0040636594385597
  94    0.00025713089731603
  95     0.012488615992232
  96    -0.087621272738019
  97      0.14952541742381
  98     0.076256901930043
  99    -0.020638659439206
 100     0.031090495692159
 101     0.061960220915055
 102    -0.051480929675664
 103     0.067753980613479
 104      0.13109883994585
 105    -0.065019842386424
 106     0.096100305550143
 107      0.19266776018051
 108    0.0060781680458356
 109    -0.0086590549048606
 110    0.0084060063065919
 111    0.0011626547008376
 112    -0.0042203588316739
 113    -0.0055936246422993
 114     0.039133295329879
 115    -0.065058374234659
 116    -0.037275943411185
 117     0.023337896237198
 118     0.029414818012652
 119    0.0096943869385004
 120     0.046210241534116
 121     0.063176318287636
 122     0.014876827419347
 123     0.067717240784185
 124     0.092888231388844
 125     0.028872687917765
 126    0.0021845398507151
 127    0.00070355670389947
 128    0.0027310297314635
 129    0.0028049785598347
 130    -0.0050973296897636
 131    -0.013988801342639
 132     0.097704679147039
 133     -0.16285652521496
 134    -0.088333398441716
 135    -0.0053376968292546
 136      0.02947393941628
 137     0.076330361509738
 138    -0.010722036629632
 139     0.067106933847167
 140      0.16258182405725
 141    -0.011601861406104
 142      0.09227464563195
 143      0.23171592271614
 144    -0.010303580051746
 145    0.0015578303183637
 146    -0.012877059050187
 147    0.0040636594385597
 148    0.00025713089731603
 149     0.012488615992232
 150    -0.087621272738019
 151      0.14952541742381
 152     0.076256901930043
 153     0.020638659439206
 154    -0.031090495692159
 155     0.061960220915055
 156     0.051480929675665
 157    -0.067753980613479
 158      0.13109883994585
 159     0.065019842386425
 160    -0.096100305550143
 161      0.19266776018051
 162    0.0060781680458356
 163    0.0086590549048606
 164    -0.0084060063065919
 165    0.0011626547008376
 166    -0.0042203588316739
 167    -0.0055936246422993
 168     0.039133295329879
 169    -0.065058374234659
 170    -0.037275943411185
 171    -0.023337896237197
 172    -0.029414818012653
 173    0.0096943869385004
 174    -0.046210241534116
 175    -0.063176318287636
 176     0.014876827419347
 177    -0.067717240784185
 178    -0.092888231388844
 179     0.028872687917765
 180    0.0021845398507151
 181    -0.00070355670389947
 182    -0.0027310297314635
 183    0.0028049785598347
 184    -0.0050973296897636
 Sym= A
 Ene=               2
 Spin= Alpha
 Occup=    1.00000
   1    0.0047032586992332
   2    -0.013929251987628
   3      0.06379663153977
   4    -0.0020880833106706
   5    -0.0097082443265088
   6     0.021170691865858
   7    0.0061592902697759
   8    -0.0012233572985684
   9    -0.070375227898336
  10    -0.018518275461058
  11    0.0028492964413428
  12     0.023172491313425
  13    -0.064880105018203
  14     -0.02870537749106
  15     0.041449885664589
  16    -0.040477830168683
  17     0.054067303307514
  18     0.038180351649756
  19    -0.071495562198109
  20     0.026595502762279
  21     -0.02596185383616
  22     0.035506646372227
  23     0.026742507663772
  24    -0.049348930227929
  25    9.4309908331326e-05
  26    0.0012289516595568
  27    7.4752589997825e-05
  28    -0.00061198059646667
  29    0.0022612353403233
  30    0.0012822669473824
  31    0.00033505573980401
  32    3.6201558485445e-17
  33    1.8742980352536e-17
  34    2.2421537307361e-17
  35    -0.025414293388466
  36     0.057771980611369
  37    3.1370020839621e-17
  38    -0.020843431195279
  39     0.062820460136652
  40    2.9981822544487e-17
  41    3.2800228132371e-19
  42    -0.0011014632190935
  43    0.0015691842262964
  44    4.6300757569745e-19
  45    1.7789852148125e-19
  46    -0.0047032586992332
  47     0.013929251987628
  48     -0.06379663153977
  49    0.0020880833106706
  50    0.0097082443265088
  51     0.021170691865858
  52    0.0061592902697759
  53    0.0012233572985684
  54    -0.070375227898336
  55    -0.018518275461058
  56    -0.0028492964413428
  57     0.023172491313425
  58    -0.064880105018203
  59     0.028705377491059
  60    -0.041449885664589
  61    -0.040477830168683
  62     0.054067303307514
  63    -0.038180351649756
  64     0.071495562198109
  65    -0.026595502762279
  66     -0.02596185383616
  67     0.035506646372227
  68    -0.026742507663772
  69     0.049348930227929
  70    -9.4309908331327e-05
  71    0.0012289516595568
  72    7.4752589997824e-05
  73    0.00061198059646667
  74    -0.0022612353403233
  75    0.0012822669473824
  76    0.00033505573980401
  77    -0.00043862959213634
  78    0.0038865452012367
  79    -0.010989445245398
  80    -0.0019795925808407
  81     0.001843170510499
  82     0.022918711617966
  83      0.01093467958286
  84     0.004661550987916
  85     0.039637238691685
  86      0.02425325288798
  87    0.0070901163069966
  88     0.065874073057459
  89     0.036702486445178
  90    -0.0010575483928711
  91    -0.0012459988840855
  92    -0.0010058037815381
  93    -0.0009408864634624
  94    -0.00022061147764489
  95     0.014705144380195
  96     -0.10293440158554
  97      0.17378984504238
  98     0.090673403718739
  99    -0.046418707069199
 100      0.03570378666577
 101     0.060190046138233
 102     -0.10028855029918
 103     0.077600128889745
 104      0.13025100510247
 105     -0.13889610057956
 106      0.11336333257878
 107      0.18526457255657
 108    0.0067393811351489
 109    -0.011794660971243
 110    0.0082634431252778
 111    0.0036489086415983
 112    -0.0062268247695571
 113    -0.014544929572064
 114      0.10055837526149
 115     -0.16299669484218
 116    -0.088726472759608
 117     0.015609874226133
 118     0.080070559211743
 119    -0.018248103206401
 120     0.035079066049781
 121      0.16595861682225
 122    -0.039427946753113
 123     0.042612731867686
 124      0.24446868304127
 125    -0.056399979077442
 126    0.0045506428380282
 127    0.0019127285168657
 128    0.0098797353967468
 129      0.00992961766953
 130    -0.0066703834924575
 131    0.00043862959213641
 132    -0.0038865452012366
 133     0.010989445245398
 134    0.0019795925808407
 135     0.001843170510499
 136     0.022918711617966
 137     -0.01093467958286
 138     0.004661550987916
 139     0.039637238691685
 140     -0.02425325288798
 141    0.0070901163069966
 142     0.065874073057459
 143    -0.036702486445178
 144    0.0010575483928711
 145    -0.0012459988840855
 146    -0.0010058037815381
 147    0.0009408864634624
 148    0.00022061147764489
 149    -0.014705144380195
 150      0.10293440158554
 151     -0.17378984504238
 152    -0.090673403718739
 153    -0.046418707069199
 154      0.03570378666577
 155    -0.060190046138233
 156     -0.10028855029918
 157     0.077600128889745
 158     -0.13025100510247
 159     -0.13889610057956
 160      0.11336333257878
 161     -0.18526457255657
 162    -0.0067393811351489
 163    -0.011794660971243
 164    0.0082634431252778
 165    -0.0036489086415983
 166    0.0062268247695571
 167     0.014544929572064
 168     -0.10055837526149
 169      0.16299669484218
 170     0.088726472759608
 171     0.015609874226133
 172     0.080070559211743
 173     0.018248103206401
 174     0.035079066049781
 175      0.16595861682225
 176     0.039427946753113
 177     0.042612731867686
 178      0.24446868304127
 179     0.056399979077442
 180    -0.0045506428380282
 181    0.0019127285168657
 182    0.0098797353967468
 183     -0.00992961766953
 184    0.0066703834924575
 Sym= A
 Ene=               3
 Spin= Alpha
 Occup=    1.00000
   1    -0.0039826678400061
   2     0.011855448177038
   3    -0.053309616025202
   4     0.048829348475967
   5    -0.029687796159174
   6    -0.0072383337162668
   7     0.013010688911883
   8      0.01804902624754
   9     0.024545858514472
  10    -0.039898462367163
  11    -0.056715981675276
  12    -0.020642215154925
  13    -0.039818415221066
  14     0.065415242692769
  15     0.054563346656801
  16     0.022732525521709
  17    -0.065623550261762
  18    -0.0043309522028855
  19    -0.015170113160314
  20     0.040129254984202
  21     0.017185226997234
  22    -0.047106878925018
  23    -0.0022951173066639
  24    -0.010615185549082
  25    0.00055821238548412
  26    0.00070654377022051
  27    -0.0015078757457646
  28    -0.00079432689192756
  29    -0.00097787117845681
  30    0.00056092255524173
  31    0.0009893536810701
  32    -1.6033452188135e-16
  33    -4.7057939675525e-17
  34    -5.2301442784605e-17
  35    0.00088855823582128
  36     0.038761577748066
  37    -1.6599217097701e-17
  38    0.0019419335800476
  39     0.042514393934886
  40    -2.4022750354513e-17
  41    1.0371286843275e-18
  42    0.00071412528167778
  43    7.771571588719e-05
  44    -3.6046806433903e-19
  45    -1.2534236725712e-18
  46    0.0039826678400062
  47    -0.011855448177038
  48     0.053309616025202
  49    -0.048829348475967
  50     0.029687796159174
  51    -0.0072383337162668
  52     0.013010688911883
  53     -0.01804902624754
  54     0.024545858514472
  55    -0.039898462367164
  56     0.056715981675276
  57    -0.020642215154925
  58    -0.039818415221066
  59    -0.065415242692769
  60      -0.0545633466568
  61     0.022732525521709
  62    -0.065623550261762
  63    0.0043309522028855
  64     0.015170113160314
  65    -0.040129254984202
  66     0.017185226997234
  67    -0.047106878925018
  68    0.0022951173066639
  69     0.010615185549082
  70    -0.00055821238548411
  71    0.0007065437702205
  72    -0.0015078757457646
  73    0.00079432689192755
  74    0.00097787117845681
  75    0.00056092255524173
  76    0.0009893536810701
  77     0.017791756702023
  78     -0.12567269804374
  79      0.21301151662664
  80      0.11645784681569
  81    0.0019849550084584
  82     0.039105617854996
  83    -0.088329309742505
  84    0.00068907107214122
  85     0.092207088735414
  86     -0.19668666537411
  87    0.0081035474624541
  88      0.12983585450177
  89     -0.27529082464172
  90     0.012949809464439
  91    0.0011589645984098
  92    -0.016337572082657
  93    -0.0050048744294756
  94    -0.00035758952518937
  95    -0.004468689587499
  96     0.032057279885875
  97    -0.060366596458486
  98    -0.017437241828192
  99    0.0035841771377036
 100    0.0073582876818043
 101    -0.038317975230194
 102     0.013889964293935
 103    0.0079715386409058
 104    -0.077077853762521
 105     0.016162762415412
 106     0.023683874079862
 107     -0.11501430185992
 108    -0.0027007310329071
 109    0.0030515364957504
 110    -0.0028017468744135
 111    -0.0010101175942957
 112    0.00028887025520399
 113    -0.0045334863083386
 114     0.029993490514153
 115    -0.044944670948522
 116    -0.014598678364439
 117    -0.0069785255216792
 118     0.022734286357591
 119    -0.064194466299519
 120    -0.014414725250813
 121      0.04251348967695
 122     -0.11548396490982
 123    -0.023591403989576
 124     0.056411242725968
 125       -0.182805804408
 126    -0.00074004139036643
 127     0.001360121850856
 128    0.0069444069838515
 129    0.0034199316877778
 130    -0.00013950300021299
 131    -0.017791756702023
 132      0.12567269804374
 133     -0.21301151662664
 134     -0.11645784681569
 135    0.0019849550084585
 136     0.039105617854996
 137     0.088329309742505
 138    0.00068907107214133
 139     0.092207088735413
 140      0.19668666537411
 141    0.0081035474624543
 142      0.12983585450177
 143      0.27529082464172
 144    -0.012949809464439
 145    0.0011589645984098
 146    -0.016337572082657
 147    0.0050048744294756
 148    0.00035758952518937
 149    0.0044686895874985
 150    -0.032057279885875
 151     0.060366596458486
 152     0.017437241828192
 153    0.0035841771377037
 154    0.0073582876818042
 155     0.038317975230194
 156     0.013889964293935
 157    0.0079715386409055
 158     0.077077853762521
 159     0.016162762415413
 160     0.023683874079862
 161      0.11501430185992
 162    0.0027007310329071
 163    0.0030515364957504
 164    -0.0028017468744135
 165    0.0010101175942958
 166    -0.000288870255204
 167    0.0045334863083387
 168    -0.029993490514152
 169     0.044944670948522
 170     0.014598678364439
 171    -0.0069785255216792
 172     0.022734286357591
 173     0.064194466299519
 174    -0.014414725250813
 175     0.042513489676949
 176      0.11548396490982
 177    -0.023591403989576
 178     0.056411242725967
 179        0.182805804408
 180    0.00074004139036644
 181     0.001360121850856
 182    0.0069444069838515
 183    -0.0034199316877777
 184    0.00013950300021297
 Sym= A
 Ene=               4
 Spin= Alpha
 Occup=    1.00000
   1    0.0041295474685643
   2    -0.012389196564952
   3     0.055291268967176
   4     0.014077320215996
   5    -0.0056131797198296
   6     0.024518905937421