[Molden Format]
made by pyscf v[2.1.1]
[Atoms] (AU)
Fe   1   26     3.17068844873907     0.00098706064664     0.12237737881307
O   2   8     0.00000000000000     0.00000000000000    -0.89004350580623
Fe   3   26    -3.17068844873907    -0.00098706064664     0.12237737881307
Cl   4   17     3.53383895113107    -2.07485195383062     3.76228752659000
Cl   5   17     5.54152580550813    -1.85590924879884    -2.78672786652360
Cl   6   17     4.48169216485503     3.92976278472880    -0.95330240907949
Cl   7   17    -3.53383895113107     2.07485195383062     3.76228752659000
Cl   8   17    -5.54152580550813     1.85590924879884    -2.78672786652360
Cl   9   17    -4.48169216485503    -3.92976278472880    -0.95330240907949
[GTO]
1 0
 s    6 1.00
          60923.640643  0.0017552243692958
          9147.8893982   0.013449023284001
          2081.3505927   0.066678874640978
          587.55977067    0.23176348548844
           191.0904399    0.46945550248188
          65.732730112     0.3596824938678
 s    3 1.00
          127.25891928   -0.10723431835929
           14.83091301    0.62971616328466
          6.0653307408    0.44472317896179
 s    3 1.00
           10.44994371   -0.21694289195548
          1.7245228003    0.69457867408393
         0.71772177325    0.43298308896347
 s    1 1.00
        0.091449828308                   1
 s    1 1.00
        0.033706691021                   1
 p    5 1.00
          773.43750995  0.0091440529992506
          182.15149714   0.067887577136571
          57.547272758    0.26167978878504
          20.614988935    0.51088040113251
           7.634855789    0.33235475570224
 p    3 1.00
           3.871932799    0.33193859098144
          1.4924724132     0.5553666555499
         0.56061284958    0.23106034201617
 p    1 1.00
              0.134915                   1
 d    4 1.00
          38.968133419   0.033335938558743
          10.800067078    0.17766212505983
          3.6136457999      0.441281781625
          1.2129967888    0.57089200490673
 d    1 1.00
          0.3652439317                   1
 f    1 1.00
                 1.598                   1

2 0
 s    5 1.00
          2266.1767785  -0.0053893503921743
          340.87010191   -0.04023472138896
          77.363135167   -0.18008184205526
           21.47964494   -0.46828857657651
          6.6589433124   -0.44692617160187
 s    1 1.00
         0.80975975668                   1
 s    1 1.00
         0.25530772234                   1
 p    3 1.00
          17.721504317   0.062630248763161
           3.863550544    0.33331138482352
          1.0480920883    0.74148638308122
 p    1 1.00
         0.27641544411                   1
 d    1 1.00
                   1.2                   1

3 0
 s    6 1.00
          60923.640643  0.0017552243692958
          9147.8893982   0.013449023284001
          2081.3505927   0.066678874640978
          587.55977067    0.23176348548844
           191.0904399    0.46945550248188
          65.732730112     0.3596824938678
 s    3 1.00
          127.25891928   -0.10723431835929
           14.83091301    0.62971616328466
          6.0653307408    0.44472317896179
 s    3 1.00
           10.44994371   -0.21694289195548
          1.7245228003    0.69457867408393
         0.71772177325    0.43298308896347
 s    1 1.00
        0.091449828308                   1
 s    1 1.00
        0.033706691021                   1
 p    5 1.00
          773.43750995  0.0091440529992506
          182.15149714   0.067887577136571
          57.547272758    0.26167978878504
          20.614988935    0.51088040113251
           7.634855789    0.33235475570224
 p    3 1.00
           3.871932799    0.33193859098144
          1.4924724132     0.5553666555499
         0.56061284958    0.23106034201617
 p    1 1.00
              0.134915                   1
 d    4 1.00
          38.968133419   0.033335938558743
          10.800067078    0.17766212505983
          3.6136457999      0.441281781625
          1.2129967888    0.57089200490673
 d    1 1.00
          0.3652439317                   1
 f    1 1.00
                 1.598                   1

4 0
 s    5 1.00
          10449.827566  0.0054265953789407
          1571.7365221   0.040626378128836
          357.12065523    0.18359747852877
          100.25185935    0.47438948768198
          30.812727554    0.43735181104122
 s    3 1.00
          51.923789434  -0.092754154848099
          5.7045760975    0.56380825544207
          2.3508376809    0.50367044629712
 s    1 1.00
         0.44605124672                   1
 s    1 1.00
          0.1684885619                   1
 p    5 1.00
          307.66790569  -0.0088797025588865
          72.102015515  -0.064284071721237
          22.532680262   -0.24288739736006
          7.8991765444   -0.48340836369878
          2.8767268321   -0.38952563875509
 p    1 1.00
         0.77459363955                   1
 p    1 1.00
         0.21037699698                   1
 d    1 1.00
                  0.65                   1

5 0
 s    5 1.00
          10449.827566  0.0054265953789407
          1571.7365221   0.040626378128836
          357.12065523    0.18359747852877
          100.25185935    0.47438948768198
          30.812727554    0.43735181104122
 s    3 1.00
          51.923789434  -0.092754154848099
          5.7045760975    0.56380825544207
          2.3508376809    0.50367044629712
 s    1 1.00
         0.44605124672                   1
 s    1 1.00
          0.1684885619                   1
 p    5 1.00
          307.66790569  -0.0088797025588865
          72.102015515  -0.064284071721237
          22.532680262   -0.24288739736006
          7.8991765444   -0.48340836369878
          2.8767268321   -0.38952563875509
 p    1 1.00
         0.77459363955                   1
 p    1 1.00
         0.21037699698                   1
 d    1 1.00
                  0.65                   1

6 0
 s    5 1.00
          10449.827566  0.0054265953789407
          1571.7365221   0.040626378128836
          357.12065523    0.18359747852877
          100.25185935    0.47438948768198
          30.812727554    0.43735181104122
 s    3 1.00
          51.923789434  -0.092754154848099
          5.7045760975    0.56380825544207
          2.3508376809    0.50367044629712
 s    1 1.00
         0.44605124672                   1
 s    1 1.00
          0.1684885619                   1
 p    5 1.00
          307.66790569  -0.0088797025588865
          72.102015515  -0.064284071721237
          22.532680262   -0.24288739736006
          7.8991765444   -0.48340836369878
          2.8767268321   -0.38952563875509
 p    1 1.00
         0.77459363955                   1
 p    1 1.00
         0.21037699698                   1
 d    1 1.00
                  0.65                   1

7 0
 s    5 1.00
          10449.827566  0.0054265953789407
          1571.7365221   0.040626378128836
          357.12065523    0.18359747852877
          100.25185935    0.47438948768198
          30.812727554    0.43735181104122
 s    3 1.00
          51.923789434  -0.092754154848099
          5.7045760975    0.56380825544207
          2.3508376809    0.50367044629712
 s    1 1.00
         0.44605124672                   1
 s    1 1.00
          0.1684885619                   1
 p    5 1.00
          307.66790569  -0.0088797025588865
          72.102015515  -0.064284071721237
          22.532680262   -0.24288739736006
          7.8991765444   -0.48340836369878
          2.8767268321   -0.38952563875509
 p    1 1.00
         0.77459363955                   1
 p    1 1.00
         0.21037699698                   1
 d    1 1.00
                  0.65                   1

8 0
 s    5 1.00
          10449.827566  0.0054265953789407
          1571.7365221   0.040626378128836
          357.12065523    0.18359747852877
          100.25185935    0.47438948768198
          30.812727554    0.43735181104122
 s    3 1.00
          51.923789434  -0.092754154848099
          5.7045760975    0.56380825544207
          2.3508376809    0.50367044629712
 s    1 1.00
         0.44605124672                   1
 s    1 1.00
          0.1684885619                   1
 p    5 1.00
          307.66790569  -0.0088797025588865
          72.102015515  -0.064284071721237
          22.532680262   -0.24288739736006
          7.8991765444   -0.48340836369878
          2.8767268321   -0.38952563875509
 p    1 1.00
         0.77459363955                   1
 p    1 1.00
         0.21037699698                   1
 d    1 1.00
                  0.65                   1

9 0
 s    5 1.00
          10449.827566  0.0054265953789407
          1571.7365221   0.040626378128836
          357.12065523    0.18359747852877
          100.25185935    0.47438948768198
          30.812727554    0.43735181104122
 s    3 1.00
          51.923789434  -0.092754154848099
          5.7045760975    0.56380825544207
          2.3508376809    0.50367044629712
 s    1 1.00
         0.44605124672                   1
 s    1 1.00
          0.1684885619                   1
 p    5 1.00
          307.66790569  -0.0088797025588865
          72.102015515  -0.064284071721237
          22.532680262   -0.24288739736006
          7.8991765444   -0.48340836369878
          2.8767268321   -0.38952563875509
 p    1 1.00
         0.77459363955                   1
 p    1 1.00
         0.21037699698                   1
 d    1 1.00
                  0.65                   1

[5d]
[7f]
[9g]

[MO]
 Sym= A
 Ene=               0
 Spin= Alpha
 Occup=    1.00000
   1    0.0033642460431061
   2    -0.0099058550125648
   3     0.045769529784403
   4    -0.049818193273858
   5     0.010429533086742
   6    0.0074213337063077
   7    -0.00013520433709977
   8    0.0046113178469672
   9    -0.025519258898098
  10    0.00046188574573449
  11    -0.015502489676586
  12     0.022029856445924
  13    -0.0027431834702183
  14     0.031932681070244
  15    0.0049559695485011
  16    -0.029131640232012
  17    0.0020851940211398
  18    -0.022241008313857
  19    -0.0014945017614696
  20    0.0026387948068606
  21    -0.020890044645917
  22    -0.00041724983825127
  23    -0.013505914232037
  24    -0.0011065195912123
  25    -0.0016849288020423
  26    -0.0007863107719975
  27    0.00011503525374264
  28    0.0023307337398661
  29    -1.2062653121907e-05
  30     0.002458334409241
  31    1.7977962165809e-05
  32      0.14836324057439
  33     -0.52767812494555
  34     -0.40045118366177
  35    -6.1882659678852e-16
  36    -1.1498035022561e-16
  37      0.05604377790162
  38    6.8643066215595e-16
  39    -2.2324913833622e-16
  40      0.03834553784474
  41    0.0070836651017926
  42     -2.2310705123e-18
  43    -4.6196978040728e-18
  44    -0.012719871241717
  45    0.00015539114105157
  46    0.0033642460431061
  47    -0.0099058550125648
  48     0.045769529784403
  49    -0.049818193273857
  50     0.010429533086742
  51    -0.0074213337063073
  52    0.00013520433709989
  53    0.0046113178469673
  54     0.025519258898098
  55    -0.00046188574573522
  56    -0.015502489676586
  57    -0.022029856445924
  58    0.0027431834702181
  59     0.031932681070244
  60    0.0049559695485009
  61     0.029131640232012
  62    -0.0020851940211399
  63    -0.022241008313857
  64    -0.0014945017614695
  65    0.0026387948068607
  66     0.020890044645916
  67    0.00041724983825133
  68    -0.013505914232037
  69    -0.0011065195912125
  70    -0.0016849288020423
  71    0.0007863107719975
  72    -0.00011503525374264
  73    0.0023307337398661
  74    -1.2062653121905e-05
  75    -0.002458334409241
  76    -1.7977962165809e-05
  77    -0.00055153028471636
  78    0.0041078809533471
  79     -0.00582066224284
  80    -0.012406007203068
  81    0.0055288386370413
  82    0.00040461646336137
  83     0.001004235090612
  84     0.010721103462772
  85    -0.00010991442282412
  86    0.0038769559437488
  87     0.014499743974174
  88    -0.0041147093787602
  89    0.0090119860470525
  90    -0.0010881490884784
  91    -0.00033949769519455
  92    0.0013435996069976
  93    0.00046390017856435
  94    0.00014197666071208
  95    -0.00018332137624031
  96    0.0017423607022669
  97    -0.0052315170345011
  98    0.0044105003901639
  99     0.002441617872846
 100    0.00075222995572994
 101    0.0023954728772091
 102    0.0065500698677295
 103    -0.00016634154261303
 104     0.002616747325396
 105    0.0043567019385624
 106    0.0041231026799688
 107     0.006259992827476
 108    0.00019922082667679
 109    0.00048456829370369
 110    -0.00011238261475884
 111    -0.00064418921190091
 112    0.00039690422676397
 113    -0.00051239886476097
 114    0.0039576997572441
 115    -0.0080749096428767
 116    -6.2756677303562e-05
 117    0.0016739953519624
 118    0.00098345057663804
 119    0.0001932843809312
 120    0.0043586320933662
 121    0.0047673922496839
 122    4.1651389078016e-05
 123    0.0032134503427771
 124    0.0019604127451292
 125    -0.0021498936525972
 126    0.00046491660683785
 127    -3.2633883678177e-05
 128    0.00051233830516966
 129    0.00033326992168137
 130    -0.00084673924888618
 131    -0.00055153028471638
 132     0.004107880953347
 133    -0.0058206622428396
 134    -0.012406007203068
 135    -0.0055288386370412
 136    -0.0004046164633613
 137    0.0010042350906122
 138    -0.010721103462772
 139    0.00010991442282397
 140    0.0038769559437491
 141    -0.014499743974174
 142      0.00411470937876
 143     0.009011986047053
 144    -0.0010881490884784
 145    0.00033949769519455
 146    -0.0013435996069976
 147    0.00046390017856434
 148    0.00014197666071208
 149    -0.00018332137624032
 150    0.0017423607022669
 151    -0.0052315170345012
 152    0.0044105003901639
 153    -0.0024416178728464
 154    -0.00075222995573021
 155    0.0023954728772093
 156    -0.0065500698677298
 157    0.00016634154261284
 158    0.0026167473253962
 159    -0.0043567019385628
 160    -0.0041231026799691
 161    0.0062599928274763
 162    0.0001992208266768
 163    -0.00048456829370369
 164    0.00011238261475883
 165    -0.00064418921190092
 166    0.00039690422676397
 167    -0.00051239886476098
 168    0.0039576997572442
 169    -0.0080749096428771
 170    -6.2756677303895e-05
 171    -0.0016739953519621
 172    -0.00098345057663775
 173    0.00019328438093109
 174    -0.0043586320933656
 175    -0.0047673922496838
 176    4.165138907793e-05
 177    -0.0032134503427762
 178    -0.0019604127451291
 179    -0.0021498936525973
 180    0.00046491660683784
 181    3.2633883678186e-05
 182    -0.00051233830516966
 183    0.00033326992168137
 184    -0.00084673924888615
 Sym= B
 Ene=               1
 Spin= Alpha
 Occup=    1.00000
   1    0.00025010333140451
   2    -0.00082793444048482
   3    0.0030854960171452
   4     0.015058614923851
   5    -0.00035934368226897
   6    0.0029209253137443
   7    -0.0039381652814119
   8    0.0012635257661139
   9    -0.0096240369829264
  10     0.014101440366305
  11    -0.004148381675684
  12    -0.00041019292738904
  13     -0.11033407896702
  14    0.0028296267486595
  15    -0.003413339718344
  16    0.0040081761692477
  17     0.028719972476731
  18    -0.0010667245881159
  19      0.10264387468893
  20    0.0015627643150236
  21    0.0016581920453238
  22     0.017503759304524
  23    0.0004121697421961
  24     0.064778843373793
  25    0.00015279580739471
  26    0.00015702069307606
  27    0.00063224472875466
  28    -0.00016269499187088
  29    -0.0018156236967657
  30    -2.7877780490152e-05
  31    -0.0040622544308375
  32    -5.2015199283772e-15
  33    -2.2411076446017e-16
  34    -5.5078902357799e-16
  35     0.015275086735592
  36     -0.55150202263048
  37    5.8277525090668e-14
  38      0.01439484734125
  39     -0.47149326417711
  40    4.9776429418428e-14
  41    1.265273063355e-15
  42    0.00036173300092329
  43    -0.011323157429124
  44    2.1047871513407e-16
  45    1.6196723448531e-17
  46    -0.00025010333140443
  47    0.00082793444048448
  48    -0.0030854960171447
  49    -0.015058614923835
  50    0.00035934368226106
  51     0.002920925313743
  52    -0.0039381652814119
  53    -0.0012635257661127
  54    -0.0096240369829224
  55     0.014101440366305
  56    0.0041483816756797
  57    -0.0004101929273758
  58     -0.11033407896702
  59    -0.0028296267486375
  60    0.0034133397183295
  61    0.0040081761692589
  62     0.028719972476732
  63    0.0010667245881304
  64     -0.10264387468893
  65    -0.0015627643150311
  66    0.0016581920453321
  67     0.017503759304525
  68    -0.00041216974218874
  69    -0.064778843373793
  70    -0.00015279580739486
  71    0.00015702069307527
  72    0.0006322447287547
  73    0.00016269499187118
  74    0.0018156236967656
  75    -2.7877780489596e-05
  76    -0.0040622544308375
  77    0.00075736594854571
  78    -0.0054471751862845
  79     0.010618607643839
  80    -0.0097349944426884
  81    0.0044300008002108
  82    0.0016888170814153
  83    -0.0054036710154253
  84    0.0088592629160542
  85    0.0038856224367927
  86    -0.012990774649823
  87     0.010997398625271
  88    0.0066899789133703
  89    -0.0040350236984041
  90    0.0009046389678023
  91     0.002116421383525
  92    -0.00019886663550041
  93    0.00084044675948273
  94    6.7616081230902e-05
  95    0.00083702083450424
  96    -0.0059138029752698
  97     0.010429709275203
  98    -0.0057987164032675
  99    -0.0001747109871073
 100    0.0015171544035485
 101     0.006696211967157
 102    -0.0011889477627728
 103    0.0029424644741436
 104      0.01482119673461
 105     0.003390602930652
 106    0.0091113920398542
 107     0.011266230795255
 108    -0.00091429471695225
 109    -0.0013584011733552
 110    0.00034871096427167
 111    0.0017387284788858
 112    -0.00021807652102512
 113    -0.0007351695640611
 114    0.0049516922465102
 115    -0.0073669336179928
 116     0.012848281993868
 117    -0.0078365543864745
 118    0.0082752611405672
 119    -0.0061329657944534
 120      -0.0150001287357
 121     0.017278857128238
 122    -0.012421337442564
 123    -0.024158844906195
 124    0.0097316533056371
 125    -0.010522101352284
 126    0.0017847588080215
 127    4.9179635082908e-05
 128    -0.00031286270990332
 129    -0.0026590680678976
 130    -0.0035065001989781
 131    -0.00075736594854524
 132    0.0054471751862813
 133    -0.010618607643834
 134    0.0097349944426892
 135      0.00443000080021
 136    0.0016888170814137
 137     0.005403671015423
 138    0.0088592629160525
 139    0.0038856224367888
 140     0.012990774649818
 141     0.010997398625269
 142    0.0066899789133673
 143    0.0040350236983987
 144    -0.00090463896780203
 145    0.0021164213835243
 146    -0.00019886663549979
 147    -0.00084044675948251
 148    -6.7616081231326e-05
 149    -0.0008370208345046
 150    0.0059138029752719
 151    -0.010429709275208
 152    0.0057987164032719
 153    -0.00017471098710594
 154      0.00151715440355
 155     -0.00669621196716
 156    -0.0011889477627705
 157    0.0029424644741468
 158    -0.014821196734617
 159    0.0033906029306571
 160    0.0091113920398563
 161    -0.011266230795263
 162    0.00091429471695242
 163    -0.0013584011733552
 164    0.00034871096427162
 165    -0.0017387284788862
 166    0.0002180765210253
 167    0.00073516956406137
 168    -0.0049516922465109
 169     0.007366933617993
 170    -0.012848281993863
 171    -0.007836554386473
 172    0.0082752611405672
 173    0.0061329657944528
 174    -0.015000128735698
 175     0.017278857128238
 176     0.012421337442563
 177    -0.024158844906191
 178    0.0097316533056395
 179     0.010522101352282
 180    -0.0017847588080216
 181    4.917963508323e-05
 182    -0.00031286270990302
 183    0.0026590680678974
 184    0.0035065001989782
 Sym= A
 Ene=               2
 Spin= Alpha
 Occup=    1.00000
   1    0.00036875901315074
   2    -0.001593738683623
   3    0.0028980779629299
   4     0.074779154161954
   5    -0.036196330365548
   6    0.0059225283133586
   7    6.9515011512015e-05
   8    0.0057064622525905
   9    -0.018436333241514
  10    -0.00018515493024265
  11    -0.019710663701363
  12    -0.060625924534147
  13    -0.0018486747529037
  14      0.10069845653625
  15     -0.06515236086361
  16    -0.051465676437396
  17    -0.0023475786644817
  18     0.067048236828078
  19    8.6970743270287e-05
  20    -0.034493045482628
  21    -0.038204017973381
  22    -0.0053283549765665
  23     0.034061239544645
  24    0.00050913554340749
  25    -0.00068258011483414
  26    0.0036004870314692
  27    -0.00021420015105204
  28    0.0013877760097864
  29    -0.0002598466235879
  30    -0.0025450818252069
  31    8.1791106808629e-05
  32    -0.047317136146799
  33    -0.0026131776121532
  34    -0.0053512155469287
  35    4.141877767094e-14
  36    6.2351521650828e-14
  37      0.53377001498932
  38    3.3890256796262e-14
  39    5.3234875615352e-14
  40      0.45637834252866
  41     0.011604191510674
  42    1.1497761931946e-15
  43    1.2813649853793e-15
  44    0.0019199452604484
  45    0.00014538308377492
  46    0.0003687590131497
  47    -0.0015937386836197
  48    0.0028980779629167
  49     0.074779154161924
  50    -0.036196330365536
  51    -0.0059225283133523
  52    -6.9515011511076e-05
  53    0.0057064622525884
  54     0.018436333241494
  55    0.0001851549302393
  56    -0.019710663701356
  57     0.060625924534137
  58    0.0018486747529289
  59      0.10069845653626
  60    -0.065152360863603
  61     0.051465676437408
  62    0.0023475786644754
  63     0.067048236828061
  64    8.6970743293098e-05
  65    -0.034493045482625
  66     0.038204017973386
  67    0.0053283549765625
  68     0.034061239544638
  69    0.00050913554342175
  70    -0.00068258011483461
  71    -0.003600487031469
  72    0.00021420015105182
  73     0.001387776009787
  74    -0.00025984662358835
  75    0.0025450818252062
  76    -8.1791106807755e-05
  77    0.0020738959141411
  78    -0.014621706509539
  79     0.022062939273447
  80    0.0037235972871922
  81    0.0039745894483139
  82    0.0077613392442526
  83    -0.010777515923556
  84    0.0077302664482747
  85      0.01811360913058
  86    -0.025079940951975
  87     0.012627233360903
  88      0.01372480250064
  89     -0.02439615422724
  90    0.0012402897943829
  91    0.0034193327661003
  92    -0.0028470367902824
  93    0.00097080486169846
  94    -0.0019400566840461
  95    -0.0013804146549689
  96    0.0097973113782367
  97     -0.02129014030854
  98     0.019984898591611
  99    -0.0063383729223269
 100    -0.0067884061267213
 101    -0.013935088596583
 102    -0.010445628175514
 103     -0.01464514870584
 104    -0.028168092353579
 105    -0.023630159611737
 106    -0.0096388515738924
 107    -0.032920481221255
 108     0.000798113575089
 109    -0.00015541539997861
 110    0.00025286657204668
 111    -0.0016691472251897
 112    0.00080224401671456
 113    0.00047117867968992
 114    -0.0032177529346524
 115     0.000907861503326
 116      0.02059868576177
 117    -0.0067132882274788
 118    -0.00013696201404672
 119    -0.002452829909903
 120    -0.013127919242913
 121    -0.00045338034370526
 122    -0.0037749359659321
 123    -0.017587599243737
 124    -0.011190351533257
 125    -0.010636958292799
 126    -0.00061774741048081
 127    -0.0014723217937813
 128    -0.0013706236298297
 129    -0.00098340264173059
 130    0.00046185165769939
 131    0.0020738959141412
 132    -0.014621706509539
 133     0.022062939273448
 134    0.0037235972871898
 135    -0.003974589448319
 136    -0.0077613392442534
 137    -0.010777515923556
 138    -0.0077302664482842
 139    -0.018113609130582
 140    -0.025079940951976
 141    -0.012627233360916
 142    -0.013724802500644
 143    -0.024396154227239
 144    0.0012402897943826
 145    -0.0034193327661003
 146     0.002847036790282
 147    0.0009708048616987
 148    -0.0019400566840458
 149    -0.0013804146549693
 150    0.0097973113782389
 151    -0.021290140308542
 152     0.019984898591605
 153    0.0063383729223228
 154    0.0067884061267221
 155    -0.013935088596582
 156     0.010445628175506
 157     0.014645148705841
 158    -0.028168092353578
 159     0.023630159611725
 160    0.0096388515738938
 161    -0.032920481221255
 162    0.00079811357508888
 163    0.00015541539997794
 164    -0.00025286657204617
 165    -0.0016691472251898
 166    0.00080224401671525
 167    0.00047117867968917
 168    -0.0032177529346472
 169    0.00090786150331869
 170     0.020598685761769
 171    0.0067132882274773
 172    0.0001369620140419
 173    -0.0024528299099042
 174      0.01312791924291
 175    0.00045338034369514
 176    -0.0037749359659348
 177     0.017587599243734
 178     0.011190351533246
 179    -0.010636958292801
 180    -0.00061774741047975
 181    0.0014723217937812
 182    0.0013706236298294
 183    -0.00098340264173059
 184    0.00046185165769759
 Sym= B
 Ene=               3
 Spin= Alpha
 Occup=    1.00000
   1    0.0057115112116358
   2     -0.01815288413297
   3     0.072445418811507
   4      0.17640456794647
   5    -0.063142872547871
   6     0.036326887869829
   7    0.00042241756529846
   8     0.012444628673879
   9     -0.11941137453691
  10     -0.00138595178232
  11     -0.04074061359406
  12    -0.053040804560558
  13    0.0054317950498023
  14    -0.021966667377664
  15    -0.038972376259696
  16     0.068166318861687
  17    -0.00027048340794175
  18     0.090235623433097
  19    -0.0020579419360717
  20    -0.017512207672279
  21     0.027636005595222
  22    -0.0010450487141995
  23     0.037820539823625
  24    -0.00064896368001012
  25    0.0026475608662319
  26    0.0013965620250227
  27    -0.00047643156000241
  28    -0.0034088764204073
  29    0.00028554884929178
  30    -0.0039491720956891
  31    -6.9288176567702e-05
  32    4.5684802488262e-15
  33    -3.098162970807e-17
  34    3.0728070894043e-16
  35       0.4529949993505
  36     0.022605549542399
  37    -5.0649091473326e-14
  38      0.37435314300102
  39     0.017823362951989
  40    -4.316127589755e-14
  41    -1.0965012733336e-15
  42     0.012507320585498
  43    0.00046860113137391
  44    -1.8824564758956e-16
  45    -1.3319386006541e-17
  46    -0.0057115112116358
  47      0.01815288413297
  48    -0.072445418811507
  49     -0.17640456794649
  50     0.063142872547878
  51     0.036326887869831
  52    0.00042241756529846
  53     -0.01244462867388
  54     -0.11941137453691
  55     -0.00138595178232
  56     0.040740613594063
  57    -0.053040804560569
  58    0.0054317950498019
  59     0.021966667377645
  60     0.038972376259709
  61     0.068166318861677
  62    -0.00027048340794147
  63     -0.09023562343311
  64    0.0020579419360721
  65     0.017512207672285
  66     0.027636005595215
  67    -0.0010450487142018
  68    -0.037820539823632
  69    0.00064896368000939
  70    -0.0026475608662318
  71    0.0013965620250233
  72    -0.00047643156000245
  73     0.003408876420407
  74    -0.00028554884929174
  75    -0.0039491720956896
  76    -6.9288176567687e-05
  77    0.00077011140290981
  78    -0.0053008035046423
  79    0.0076473711387876
  80    0.0018044409342967
  81    -0.021571611621145
  82    -0.0022163907200226
  83    -0.0053870944253945
  84     -0.03990807439694
  85    -0.0029835844697832
  86    -0.011521595012668
  87    -0.054556735985971
  88    -0.0084730225235883
  89    -0.011039034564519
  90    0.0025340047382391
  91    0.0022577563835596
  92    -0.0023209367364917
  93    -0.0003135014150276
  94    -0.0011799160206397
  95    0.0026906320228405
  96    -0.018588414721541
  97     0.025291136263728
  98     0.024450490562525
  99    -0.021457253309306
 100    0.0057216509100574
 101    0.0033279044192736
 102    -0.041224451556523
 103     0.013056851624439
 104     0.010044594562302
 105    -0.059140002430222
 106     0.017624711102705
 107     0.014045777091714
 108    -0.00044099966447652
 109    -0.0050673393276563
 110    0.0030703939931266
 111    0.0025929464872078
 112    -0.0038884257447254
 113    0.0030781953340578
 114    -0.021027601987409
 115     0.029669189383623
 116     0.020208440362208
 117    -0.017167872191249
 118    -0.015695080551609
 119    -0.00065028006405562
 120    -0.032203684926911
 121    -0.032946221399197
 122    0.0001182066314705
 123    -0.042193157894324
 124    -0.043877935534543
 125    0.00010436721192393
 126    -0.0034881955389002
 127    -0.00077027862645458
 128    -0.0018017123924594
 129    -0.0030233077571712
 130    0.0054438031565003
 131    -0.00077011140291003
 132     0.005300803504645
 133    -0.0076473711387916
 134    -0.0018044409342973
 135    -0.021571611621144
 136    -0.0022163907200212
 137    0.0053870944253965
 138    -0.039908074396938
 139    -0.0029835844697798
 140     0.011521595012672
 141    -0.054556735985969
 142    -0.0084730225235857
 143     0.011039034564524
 144    -0.0025340047382393
 145    0.0022577563835603
 146    -0.0023209367364923
 147    0.00031350141502742
 148    0.0011799160206401
 149    -0.0026906320228402
 150     0.018588414721539
 151    -0.025291136263724
 152    -0.024450490562529
 153    -0.021457253309307
 154    0.0057216509100561
 155    -0.003327904419271
 156    -0.041224451556525
 157     0.013056851624437
 158    -0.010044594562297
 159    -0.059140002430226
 160     0.017624711102704
 161    -0.014045777091708
 162    0.00044099966447636
 163    -0.0050673393276563
 164    0.0030703939931267
 165    -0.0025929464872075
 166    0.0038884257447253
 167    -0.0030781953340579
 168      0.02102760198741
 169    -0.029669189383623
 170    -0.020208440362212
 171     -0.01716787219125
 172    -0.015695080551609
 173    0.00065028006405605
 174    -0.032203684926913
 175    -0.032946221399197
 176    -0.00011820663146984
 177    -0.042193157894328
 178    -0.043877935534545
 179    -0.00010436721192201
 180    0.0034881955389003
 181    -0.00077027862645486
 182    -0.0018017123924597
 183    0.0030233077571714
 184    -0.0054438031565004
 Sym= B
 Ene=               4