[Molden Format]
made by pyscf v[2.1.1]
[Atoms] (AU)
Fe   1   26     3.17068844873907     0.00098706064664     0.12237737881307
O   2   8     0.00000000000000     0.00000000000000    -0.89004350580623
Fe   3   26    -3.17068844873907    -0.00098706064664     0.12237737881307
Cl   4   17     3.53383895113107    -2.07485195383062     3.76228752659000
Cl   5   17     5.54152580550813    -1.85590924879884    -2.78672786652360
Cl   6   17     4.48169216485503     3.92976278472880    -0.95330240907949
Cl   7   17    -3.53383895113107     2.07485195383062     3.76228752659000
Cl   8   17    -5.54152580550813     1.85590924879884    -2.78672786652360
Cl   9   17    -4.48169216485503    -3.92976278472880    -0.95330240907949
[GTO]
1 0
 s    6 1.00
          60923.640643  0.0017552243692958
          9147.8893982   0.013449023284001
          2081.3505927   0.066678874640978
          587.55977067    0.23176348548844
           191.0904399    0.46945550248188
          65.732730112     0.3596824938678
 s    3 1.00
          127.25891928   -0.10723431835929
           14.83091301    0.62971616328466
          6.0653307408    0.44472317896179
 s    3 1.00
           10.44994371   -0.21694289195548
          1.7245228003    0.69457867408393
         0.71772177325    0.43298308896347
 s    1 1.00
        0.091449828308                   1
 s    1 1.00
        0.033706691021                   1
 p    5 1.00
          773.43750995  0.0091440529992506
          182.15149714   0.067887577136571
          57.547272758    0.26167978878504
          20.614988935    0.51088040113251
           7.634855789    0.33235475570224
 p    3 1.00
           3.871932799    0.33193859098144
          1.4924724132     0.5553666555499
         0.56061284958    0.23106034201617
 p    1 1.00
              0.134915                   1
 d    4 1.00
          38.968133419   0.033335938558743
          10.800067078    0.17766212505983
          3.6136457999      0.441281781625
          1.2129967888    0.57089200490673
 d    1 1.00
          0.3652439317                   1
 f    1 1.00
                 1.598                   1

2 0
 s    5 1.00
          2266.1767785  -0.0053893503921743
          340.87010191   -0.04023472138896
          77.363135167   -0.18008184205526
           21.47964494   -0.46828857657651
          6.6589433124   -0.44692617160187
 s    1 1.00
         0.80975975668                   1
 s    1 1.00
         0.25530772234                   1
 p    3 1.00
          17.721504317   0.062630248763161
           3.863550544    0.33331138482352
          1.0480920883    0.74148638308122
 p    1 1.00
         0.27641544411                   1
 d    1 1.00
                   1.2                   1

3 0
 s    6 1.00
          60923.640643  0.0017552243692958
          9147.8893982   0.013449023284001
          2081.3505927   0.066678874640978
          587.55977067    0.23176348548844
           191.0904399    0.46945550248188
          65.732730112     0.3596824938678
 s    3 1.00
          127.25891928   -0.10723431835929
           14.83091301    0.62971616328466
          6.0653307408    0.44472317896179
 s    3 1.00
           10.44994371   -0.21694289195548
          1.7245228003    0.69457867408393
         0.71772177325    0.43298308896347
 s    1 1.00
        0.091449828308                   1
 s    1 1.00
        0.033706691021                   1
 p    5 1.00
          773.43750995  0.0091440529992506
          182.15149714   0.067887577136571
          57.547272758    0.26167978878504
          20.614988935    0.51088040113251
           7.634855789    0.33235475570224
 p    3 1.00
           3.871932799    0.33193859098144
          1.4924724132     0.5553666555499
         0.56061284958    0.23106034201617
 p    1 1.00
              0.134915                   1
 d    4 1.00
          38.968133419   0.033335938558743
          10.800067078    0.17766212505983
          3.6136457999      0.441281781625
          1.2129967888    0.57089200490673
 d    1 1.00
          0.3652439317                   1
 f    1 1.00
                 1.598                   1

4 0
 s    5 1.00
          10449.827566  0.0054265953789407
          1571.7365221   0.040626378128836
          357.12065523    0.18359747852877
          100.25185935    0.47438948768198
          30.812727554    0.43735181104122
 s    3 1.00
          51.923789434  -0.092754154848099
          5.7045760975    0.56380825544207
          2.3508376809    0.50367044629712
 s    1 1.00
         0.44605124672                   1
 s    1 1.00
          0.1684885619                   1
 p    5 1.00
          307.66790569  -0.0088797025588865
          72.102015515  -0.064284071721237
          22.532680262   -0.24288739736006
          7.8991765444   -0.48340836369878
          2.8767268321   -0.38952563875509
 p    1 1.00
         0.77459363955                   1
 p    1 1.00
         0.21037699698                   1
 d    1 1.00
                  0.65                   1

5 0
 s    5 1.00
          10449.827566  0.0054265953789407
          1571.7365221   0.040626378128836
          357.12065523    0.18359747852877
          100.25185935    0.47438948768198
          30.812727554    0.43735181104122
 s    3 1.00
          51.923789434  -0.092754154848099
          5.7045760975    0.56380825544207
          2.3508376809    0.50367044629712
 s    1 1.00
         0.44605124672                   1
 s    1 1.00
          0.1684885619                   1
 p    5 1.00
          307.66790569  -0.0088797025588865
          72.102015515  -0.064284071721237
          22.532680262   -0.24288739736006
          7.8991765444   -0.48340836369878
          2.8767268321   -0.38952563875509
 p    1 1.00
         0.77459363955                   1
 p    1 1.00
         0.21037699698                   1
 d    1 1.00
                  0.65                   1

6 0
 s    5 1.00
          10449.827566  0.0054265953789407
          1571.7365221   0.040626378128836
          357.12065523    0.18359747852877
          100.25185935    0.47438948768198
          30.812727554    0.43735181104122
 s    3 1.00
          51.923789434  -0.092754154848099
          5.7045760975    0.56380825544207
          2.3508376809    0.50367044629712
 s    1 1.00
         0.44605124672                   1
 s    1 1.00
          0.1684885619                   1
 p    5 1.00
          307.66790569  -0.0088797025588865
          72.102015515  -0.064284071721237
          22.532680262   -0.24288739736006
          7.8991765444   -0.48340836369878
          2.8767268321   -0.38952563875509
 p    1 1.00
         0.77459363955                   1
 p    1 1.00
         0.21037699698                   1
 d    1 1.00
                  0.65                   1

7 0
 s    5 1.00
          10449.827566  0.0054265953789407
          1571.7365221   0.040626378128836
          357.12065523    0.18359747852877
          100.25185935    0.47438948768198
          30.812727554    0.43735181104122
 s    3 1.00
          51.923789434  -0.092754154848099
          5.7045760975    0.56380825544207
          2.3508376809    0.50367044629712
 s    1 1.00
         0.44605124672                   1
 s    1 1.00
          0.1684885619                   1
 p    5 1.00
          307.66790569  -0.0088797025588865
          72.102015515  -0.064284071721237
          22.532680262   -0.24288739736006
          7.8991765444   -0.48340836369878
          2.8767268321   -0.38952563875509
 p    1 1.00
         0.77459363955                   1
 p    1 1.00
         0.21037699698                   1
 d    1 1.00
                  0.65                   1

8 0
 s    5 1.00
          10449.827566  0.0054265953789407
          1571.7365221   0.040626378128836
          357.12065523    0.18359747852877
          100.25185935    0.47438948768198
          30.812727554    0.43735181104122
 s    3 1.00
          51.923789434  -0.092754154848099
          5.7045760975    0.56380825544207
          2.3508376809    0.50367044629712
 s    1 1.00
         0.44605124672                   1
 s    1 1.00
          0.1684885619                   1
 p    5 1.00
          307.66790569  -0.0088797025588865
          72.102015515  -0.064284071721237
          22.532680262   -0.24288739736006
          7.8991765444   -0.48340836369878
          2.8767268321   -0.38952563875509
 p    1 1.00
         0.77459363955                   1
 p    1 1.00
         0.21037699698                   1
 d    1 1.00
                  0.65                   1

9 0
 s    5 1.00
          10449.827566  0.0054265953789407
          1571.7365221   0.040626378128836
          357.12065523    0.18359747852877
          100.25185935    0.47438948768198
          30.812727554    0.43735181104122
 s    3 1.00
          51.923789434  -0.092754154848099
          5.7045760975    0.56380825544207
          2.3508376809    0.50367044629712
 s    1 1.00
         0.44605124672                   1
 s    1 1.00
          0.1684885619                   1
 p    5 1.00
          307.66790569  -0.0088797025588865
          72.102015515  -0.064284071721237
          22.532680262   -0.24288739736006
          7.8991765444   -0.48340836369878
          2.8767268321   -0.38952563875509
 p    1 1.00
         0.77459363955                   1
 p    1 1.00
         0.21037699698                   1
 d    1 1.00
                  0.65                   1

[5d]
[7f]
[9g]

[MO]
 Sym= A
 Ene=               0
 Spin= Alpha
 Occup=    1.00000
   1    0.0010768481896859
   2    -0.0032049933792636
   3     0.014383146074924
   4    -0.016906473928664
   5     0.006874404514672
   6    0.0050406054311518
   7    -0.00037478990549747
   8    -0.0022332541304865
   9    -0.016089030535495
  10    0.0011762829401015
  11     0.007156131471948
  12     0.015583389363544
  13    -0.0011956694216946
  14    -0.021815996136232
  15      0.00131628838166
  16    0.0022928819487375
  17    -0.0013801204180188
  18    -0.0012719474773051
  19    0.00056440793615633
  20     0.002712149019893
  21    0.0056573541344517
  22    0.00010236515718147
  23    -0.0014248979837593
  24    0.00082169300445791
  25    0.00012275781963012
  26    -0.00091099026078729
  27    -4.837886158171e-05
  28    -0.00025878020710962
  29    -4.879292554942e-05
  30    0.00062747106886079
  31    -8.1696836968899e-05
  32    0.0016947840569779
  33    0.0065857537817935
  34    -0.0030560863988036
  35    -0.0090057530051325
  36    -0.0085502893712276
  37     -0.11490451771645
  38    -0.010380588364383
  39    -0.0078097052746687
  40     -0.11401946623849
  41    -0.0012177782546232
  42    -0.0027641830321667
  43    -0.00029861706084863
  44    -0.00081757945448078
  45    -0.00030919633422763
  46    7.9447321700956e-05
  47    -0.0002746432001193
  48    0.00088913539197725
  49    0.0018997049564398
  50    0.0066999837758307
  51    0.00017979488819046
  52    -0.0020448300939804
  53    0.0079539122779849
  54    -0.00051599073504316
  55    0.0063486945395629
  56     -0.02514456151547
  57    0.0023957804099736
  58     -0.01196638105056
  59     0.015799832993822
  60      -0.3920471880147
  61         0.61699885221
  62     -0.38581469407711
  63      0.27920038373889
  64    -0.020896155011554
  65     -0.10122313262817
  66      0.15885656110466
  67    -0.099988561169998
  68     0.071689283155449
  69    -0.0043527042642899
  70    0.00037646425148183
  71    0.0029398104614608
  72    -0.000297392204096
  73    -0.0011328155996952
  74    -8.0474860735731e-05
  75    -0.0010626718499854
  76    -0.00026744708949589
  77    0.00036917910615849
  78    -0.0024763463908407
  79    0.0036642315859358
  80    0.0065562770919794
  81    -0.0018542457290304
  82    0.0013299282897803
  83    -0.0015818384368858
  84    -0.003350959319903
  85    0.0020892852036825
  86    -0.0026703639418029
  87    -0.0056071151295612
  88    0.0069226458857706
  89    -0.0078723532032544
  90    7.0402816683742e-05
  91    -0.00073438362054297
  92    6.8648872863049e-05
  93    -0.00027181384444907
  94    0.00041721437350733
  95    -0.00016187954261211
  96    0.0010589650588661
  97    -0.00059237625030676
  98    -0.0076212173180514
  99    0.0021923546134248
 100    -5.2972104651863e-05
 101    0.0014865648522976
 102    0.0038621759275068
 103    0.00010246319799659
 104    0.0026694128928505
 105     0.007233275619387
 106    -0.0029363769754729
 107    0.0011814589349155
 108    -9.8743845989643e-05
 109    0.0003442085575731
 110    -0.00014778389775868
 111    0.00022713201327846
 112    3.3146764779508e-05
 113    7.7522628711036e-05
 114    -0.00053640618898502
 115     0.001631135617542
 116    -0.0025487780151614
 117    -0.00034336559963836
 118    -0.00036903366559156
 119    0.0018026982961956
 120    -0.00052380459512747
 121    -0.00080999877049301
 122    0.0029795477826769
 123    -0.0015647598933321
 124    0.00069916113163219
 125      0.00585130196441
 126    0.00017009913895192
 127    0.00032652225168063
 128    0.00011291244604842
 129    3.4174602122744e-05
 130    -0.00021593929670253
 131    0.0041262415406246
 132       -0.027096419806
 133     0.035197511791481
 134     0.031843347658569
 135    -0.0086912190886638
 136    -0.019081091232604
 137    -0.039326680129024
 138    -0.014477725965143
 139     -0.03253293449257
 140    -0.067635647479912
 141    -0.024321574471911
 142    -0.058574680726466
 143      -0.1181939644949
 144    -0.00016781815157689
 145    -0.0011230470196874
 146    0.00099782333563434
 147    -0.00038689394449197
 148    -0.00097867846381208
 149    -0.0038298219942254
 150     0.025091662091036
 151    -0.032090972311841
 152    -0.030444602385989
 153    -0.011272232879333
 154     0.018789878356884
 155    -0.037286239147318
 156    -0.019662649190282
 157     0.032053932611394
 158    -0.063585219822437
 159    -0.034808139299818
 160     0.056563446049436
 161     -0.10967127219317
 162    0.00038399342535246
 163    -0.0012675361686714
 164    0.00021665707174237
 165    -0.0011592057431706
 166    0.0015234628087706
 167    0.00082885544779281
 168    -0.0055253366861722
 169    0.0096220409385742
 170    -0.00074510044183894
 171    0.0092462801480938
 172    0.0072952856879397
 173    -0.0093115242318563
 174     0.015668767587129
 175     0.012826983264502
 176    -0.015637218473373
 177     0.025610301330815
 178     0.019384863879667
 179    -0.026775598383235
 180    0.00049731260845543
 181    0.0006132021440797
 182    0.0014852878984866
 183    0.00030945328054133
 184    -0.0010338485292306
 Sym= A
 Ene=               1
 Spin= Alpha
 Occup=    1.00000
   1    -0.00087187668514267
   2    0.0025522215625316
   3    -0.011852218598353
   4      0.01034078150085
   5     0.002820424927751
   6    -0.0032460805240978
   7    0.0031084081209819
   8    -0.00099440224563927
   9     0.010528072764139
  10    -0.009906427576334
  11    0.0031744838709022
  12    -0.0091258504706278
  13     0.019806617215155
  14    4.2553026090261e-05
  15    -0.0008385938762608
  16    0.0023590807005592
  17    0.0001430414711218
  18    0.0044053278739617
  19    -0.0027093756698877
  20    -0.00061670509075332
  21    0.00030453245172565
  22    -0.0015169172299339
  23    0.0017555862689011
  24    -0.006218534386548
  25    0.00017296288762585
  26    7.3359336872724e-05
  27    -9.6266883042808e-05
  28    -0.00034748367223003
  29    0.00044880766179002
  30    -0.00026516648354657
  31    0.00087422393753574
  32    -0.0099990786636608
  33     -0.02042139450746
  34    -0.029387975735681
  35       0.0491809117788
  36      0.10040783542784
  37    0.0035449387638915
  38     0.054983748830643
  39     0.098384914858631
  40    -0.00019209037316619
  41    -0.00055866875233938
  42    0.00077757976944165
  43    0.0010264375363989
  44    0.0010126921292407
  45    0.0020957762898604
  46    0.00041133238465491
  47    -0.0013027774275511
  48    0.0051406998093182
  49    0.0069511999859931
  50    -0.0068359951713705
  51    -0.0066466417928642
  52    -0.0052066344172208
  53    0.0059473050174738
  54     0.020675957384661
  55     0.016410234982329
  56    -0.018514643101276
  57    -0.015707842767519
  58     -0.01227434464507
  59     0.020385308604102
  60     0.042588057835546
  61      -0.2553649175477
  62     -0.26855217059686
  63      0.17609952414107
  64      -0.7689290424172
  65     0.010827620664211
  66    -0.070105230541549
  67    -0.071959574517982
  68     0.044345585753669
  69     -0.19938081214333
  70    -0.00055680555807423
  71    7.0390350740753e-05
  72    -0.00080140434709332
  73    0.0014333644559871
  74    -0.0015116967524051
  75    -0.00056955920562326
  76    0.0024414337216978
  77    -8.4135932097765e-06
  78    4.4163347688007e-05
  79    -0.00012511792100744
  80    0.0011073708371784
  81    -0.00064222336886751
  82    -0.0013185393478231
  83    -0.00036912294758149
  84    -0.0011321803465273
  85    -0.0021815381122914
  86    -0.00056593860844306
  87    -0.0012720259170722
  88    -0.0039512924238037
  89    -0.0026451040117671
  90    -1.3467818141065e-05
  91    -7.844412179632e-05
  92    -0.00013403883262419
  93    -0.00011062221450546
  94    -0.00018031697177451
  95    2.0501703152946e-05
  96    -0.00013771809618095
  97    -9.1921050484171e-05
  98    0.0024004535485766
  99    -0.00089839490874494
 100    -0.00096142401821073
 101    -0.00025060765995747
 102    -0.0014894867727051
 103    -0.0016143867929879
 104    -0.00063776691736182
 105    -0.0034158223022806
 106    -0.0025701323089544
 107    0.0018150384849326
 108    1.9654948050894e-05
 109    -0.00018849100419391
 110    6.6323142149704e-05
 111    8.7259549834231e-05
 112    -0.0002911920328681
 113    -0.00054784236044722
 114    0.0036437700163128
 115    -0.0055413630873119
 116    -0.0071847921429338
 117     0.004591673127089
 118    0.0021285920716156
 119    5.3786386616761e-05
 120    0.0082280182550141
 121    0.0036626462537367
 122    0.0002862182276506
 123     0.012574742563992
 124    0.0087943015552573
 125    -0.0017055265446345
 126    -0.00045548052662654
 127    0.00012134865980147
 128    0.00026282737808868
 129    0.00075517322457653
 130    0.00087202510038343
 131    0.00066848530196256
 132    -0.004429391791779
 133    0.0068509533133753
 134    0.00081954172358199
 135     0.020483515943697
 136    0.0058615760600785
 137    -0.0084306052806825
 138     0.034641732770012
 139    0.0098324229188425
 140    -0.014816390480264
 141      0.05824747241394
 142     0.017369443075985
 143    -0.022034098012325
 144    -0.00091288541648234
 145    0.0028517410267444
 146    0.0005199329439069
 147    -0.0007589013578838
 148    0.00075148432136611
 149    -0.0024589024016533
 150        0.016145227586
 151    -0.021894591954587
 152    -0.015944272695482
 153    -0.010111486624911
 154    0.0033089808650521
 155    -0.026163164029923
 156    -0.017471021557946
 157    0.0060664936894872
 158    -0.044294204573503
 159    -0.029399661020446
 160     0.010430898286512
 161    -0.077691898073958
 162    0.00047583141815767
 163    -0.0008516854391349
 164    0.00068228590150501
 165    -0.00039672223897259
 166    0.00069059875262779
 167    0.0040883638549294
 168     -0.02672436919867
 169     0.033987372689204
 170     0.032261703937155
 171    0.00097970124086651
 172     0.046054520244182
 173    0.0027550046685214
 174     0.002105763008023
 175     0.078227626069455
 176    0.0044582308265041
 177    0.0045378291541726
 178      0.13629261949706
 179     0.010008168464634
 180    0.00024211598612863
 181    0.0010327300683132
 182    0.0022559965069365
 183    -1.258182232501e-05
 184    0.0015416706026656
 Sym= A
 Ene=               2
 Spin= Alpha
 Occup=    1.00000
   1    -0.00097875536900287
   2     0.002865534627601
   3    -0.013297242441927
   4     0.012730628965373
   5    0.0052364885983011
   6    -0.0036005291865615
   7    -0.0019867163496707
   8    -0.0008112304031006
   9     0.011645067818819
  10    0.0063312267168293
  11     0.002577372851817
  12    -0.0099393603703711
  13    -0.012816797237582
  14    0.0024763283881692
  15    -0.0025188976014607
  16    0.0016639776906406
  17    0.00043890345249516
  18    0.0034778960305442
  19    0.0015711854345039
  20    -0.0011592016772188
  21    -0.00030966343759666
  22    0.00099807838838904
  23    0.00094525853694619
  24    0.0042563639679122
  25    0.00016268106844673
  26    0.00015457896079573
  27    0.00014522178868002
  28    -0.00020674582811479
  29    -0.00031329971607569
  30    -0.00032416780302703
  31    -0.00055303053278321
  32    -0.0094564306845592
  33    -0.019714985098192
  34    -0.026268510083596
  35     0.045181168625807
  36    -0.065278096333439
  37     0.018765013937013
  38     0.050995697126443
  39    -0.063766373336412
  40     0.015563503549974
  41    -0.00059206093410475
  42    0.00096614678331175
  43    -0.0011287391662814
  44    0.00067274133606116
  45    -0.0015286131189723
  46    -0.00071535268054089
  47     0.002056445414213
  48    -0.0098238958346346
  49     0.029983563759191
  50    -0.016709661649151
  51    -0.0075912597341782
  52    0.0026828263245828
  53    0.0065664080524328
  54     0.023628187914753
  55    -0.0086053355716209
  56    -0.020411521699568
  57     -0.02064809751508
  58    0.0033846245252296
  59     0.019543897848021
  60     -0.34527396583891
  61     -0.46727935239249
  62     -0.55460837109289
  63     -0.20241290719148
  64      0.28162124343071
  65    -0.091330670865484
  66     -0.12618582771082
  67     -0.14889882601056
  68    -0.054868257218796
  69     0.071401540954265
  70    -0.0014730885549968
  71    -0.0004978262604658
  72    -0.00047137335556569
  73    0.00073426739202259
  74    0.0017490073225972
  75    -0.00025227600442626
  76    -0.001214527948923
  77    -0.00028353986815855
  78    0.0018668497375586
  79    -0.0022393896180443
  80    -0.0059906182223575
  81    0.0014429436466084
  82    -0.00015223934061236
  83     0.001640916756257
  84    0.0026927902834862
  85    -0.00028707302232649
  86    0.0026671529242123
  87    0.0036911051350441
  88    -0.0011603209662583
  89    0.0073820978724726
  90    2.2536966951121e-05
  91    0.00051806942022774
  92    3.2840708837293e-05
  93    0.00022937505371942
  94    -0.00018165604656153
  95    -0.00023871775918936
  96    0.0015771646003438
  97    -0.0023735048788381
  98    -0.0027799471711793
  99    0.0020346690935668
 100    0.00011199107261051
 101    -0.00080468260798961
 102    0.0036861262938419
 103    1.5305928446681e-05
 104    -0.0013413742609663
 105    0.0055183754867841
 106     0.001258255222788
 107    -0.0028881214077274
 108    -0.0003194288745979
 109    -0.0002182359074921
 110    3.3391667696604e-05
 111    0.0003870128441456
 112    -0.00015227538057556
 113    0.00010585989640765
 114    -0.0007264783354968
 115    0.0013704937446169
 116    0.0014521643617325
 117    -0.0018298573316389
 118    -1.955311900388e-05
 119    -0.00052959137060562
 120    -0.0032807240375354
 121    3.9343327086941e-05
 122    -0.00096499205514371
 123    -0.004594960643633
 124    -0.0019385525423837
 125    -0.00066501795722711
 126    -1.6151876875329e-05
 127    -0.0001289259539974
 128    -0.00010306264223384
 129    -0.00038964113633075
 130    0.00010332756435339
 131    0.0028388425616323
 132     -0.01858793685088
 133     0.022695361701781
 134      0.02186481535675
 135     0.015360558780466
 136    -0.013797563270586
 137    -0.024667219215483
 138     0.026208635906519
 139    -0.023701558344229
 140    -0.042374160617353
 141     0.043578352166949
 142    -0.040818425526911
 143    -0.073391107844977
 144    0.00038803174284729
 145    0.0013334945959045
 146    0.00010700762365776
 147    -0.00092903531784433
 148    0.0014813075557754
 149    0.0013717514781676
 150    -0.0089921987435889
 151     0.010938502057679
 152     0.012514262309783
 153    0.00057209560866999
 154    -0.025737241726488
 155    0.0034104588347526
 156    0.0012471993988668
 157    -0.043871338978249
 158    0.0061239757622197
 159    0.0037988191809783
 160     -0.07284658038138
 161     0.010591824637177
 162    0.00091118092164792
 163     0.001330796059458
 164    0.00084699757694021
 165    0.0018379125969393
 166    0.0013472027635707
 167    -0.0012806703371614
 168    0.0083554832439504
 169    -0.011094917445802
 170    -0.0097653023090848
 171    0.0011776388549055
 172    -0.0082789714163713
 173    -0.029181693004868
 174    0.0018885762348242
 175    -0.013836406656975
 176    -0.048891212910099
 177    0.0034474906235533
 178    -0.026630065724501
 179    -0.083900941136312
 180    0.0013650415746557
 181    0.00063877108563034
 182     0.001506753281606
 183    0.0011495995526215
 184    -0.0014567779898726
 Sym= A
 Ene=               3
 Spin= Alpha
 Occup=    1.00000
   1    0.00077537339013817
   2    -0.002266466651369
   3     0.010549828339007
   4    -0.010739103468117
   5    -0.0013602827321751
   6    0.0028155212452236
   7    0.0011452957165392
   8    0.00073483004105109
   9    -0.0091041515867486
  10    -0.0036419628339093
  11    -0.0023376303787863
  12    0.0074017860800178
  13    0.0071814409481297
  14    -0.0014401279829787
  15    0.0018843599468481
  16    -0.0019891034216752
  17    -0.00048492955079831
  18    -0.0026119987308594
  19    -0.0021075447540323
  20    0.00092705768285349
  21    0.00022812316757149
  22    -0.0005957448786149
  23    -0.00094698604884014
  24    -0.0029067305246243
  25    -0.00013200409499665
  26    -0.00012609232952547
  27    -9.7952907690023e-05
  28    0.00017517150726291
  29    0.00018378771098355
  30    0.00026715094567786
  31    0.0003326189007595
  32    0.0078138488263563
  33     0.016428711894765
  34     0.021126804623333
  35      -0.0369062197475
  36     0.038945418873294
  37    -0.012939257777622
  38    -0.041425739866314
  39     0.036869172894215
  40    -0.010358791059216
  41    -6.3739244356599e-05
  42    -0.00096272261725073
  43    0.00058612254454089
  44    -0.0010455558175595
  45    0.00087485678001087
  46    -0.00014982748637306
  47    0.00049903979220354
  48    -0.0017729511398175
  49    -0.007738219736353
  50    0.0044343881326398
  51    0.0052648765806025
  52    0.0093061029478506
  53    -0.0041169044043141
  54    -0.016425613678024
  55    -0.028846482208119
  56     0.012649457125844
  57     0.014389706712066
  58     0.035894888893347
  59    -0.014259280972193
  60     -0.58760451389478
  61     0.049933225541119
  62      0.34879641100189
  63     -0.46404230770634
  64     -0.28433156592732
  65     -0.15775309365032
  66     0.013674153995514
  67     0.092928987692746
  68     -0.12346179865731
  69     -0.07788560419397
  70    -0.00070183045033316
  71    0.00062899198530628
  72    0.00036805842122004
  73    -0.0013546500719814
  74    -0.0009120134636951
  75    0.00099755994581322
  76    0.00072327385803312
  77    0.00018084130467023
  78    -0.0011694750327454
  79    0.0010399542201512
  80    0.0044993413857308
  81     -0.00117673862912
  82    0.00011697023918314
  83    -0.0014074010014193
  84    -0.0020069189897922
  85    0.00011791162427359
  86    -0.0023649626751516
  87    -0.0036672964552498
  88    0.0011834213413677
  89    -0.0054743849463012
  90    -3.4833961194985e-05
  91    -0.00035829373083361
  92    -2.7163776529619e-05
  93    -0.00014478997115481
  94    5.0599726887689e-05
  95    0.00016930627769748
  96    -0.0011257337522404
  97    0.0018664245476968
  98    0.0013844557707732
  99    -0.0013804125906122
 100    -2.1103024102852e-05
 101    0.00053437019821073
 102    -0.0025097202651875
 103    7.1320021716704e-05
 104    0.00090124513128322
 105    -0.0037360250822988
 106    -0.00062862768864732
 107    0.0017974777721818
 108    0.00023919642275536
 109    0.00016732501991039
 110    -2.5601746898428e-05
 111    -0.00029217264783392
 112    0.00013729363710522
 113    -4.2119788949379e-05
 114    0.00029324632218613
 115    -0.00064843431893357
 116    -0.00047711319756212
 117    0.0011979203955471
 118    -0.00014906521348994
 119    0.00035305010204736
 120    0.0021757276555221
 121    -0.00028404438585777
 122    0.00061987646470802
 123    0.0026678752411977
 124    0.00047477858467565
 125    0.00061877586414257
 126    5.5695355733414e-05
 127    7.5899842357309e-05
 128    4.880171702733e-05
 129    0.0002393391494659
 130    -0.00016210596807413
 131    1.5559121404046e-05
 132    -8.8256678497435e-05
 133    0.0001141217705234
 134    -0.00062841624838627
 135    0.0013401373282493
 136    -0.027473898426105
 137     0.014824029247948
 138     0.002248771615691
 139    -0.046439501534009
 140     0.025176583523054
 141    0.0032521692091737
 142    -0.078224115995366
 143     0.042358937005489
 144    0.0031516147204443
 145    -4.0299068808802e-05
 146    -0.0018208093703846
 147    0.0013169423310628
 148    0.00026390106725493
 149    0.0013599344978906
 150    -0.008963848911835
 151     0.012783300593755
 152    0.0055299680831674
 153      0.01243278160141
 154    -0.023251696992673
 155    -0.0053934218627436
 156     0.021284708631488
 157    -0.039298544895273
 158    -0.008891546986768
 159     0.034180024040937
 160     -0.06742125628641
 161    -0.014317097767071
 162    0.0022951622441772
 163    0.0010768565397268
 164    0.00060023139524703
 165    0.00042353273002838
 166    0.0014241333071072
 167    -0.003067955494646
 168     0.020081567141195
 169    -0.026647254216396
 170    -0.016585623075368
 171    -0.024158715870488
 172    -0.025988208532461
 173    -0.0036218640815435
 174    -0.040889617966565
 175      -0.0443962151913
 176    -0.0060322569443283
 177    -0.068451697642286
 178     -0.07481132016617
 179    -0.010591830195945
 180    -0.00059167012062773
 181    0.00039281875401105
 182    -0.0014857239207191